Job execution start: Tue Oct 25 00:43:12 CEST 2022
Shared library path: /home/cs681498/orca:/opt/MPI/openmpi-4.1.1/linux/gcc_4.8.5/lib:/opt/MPI/openmpi-4.1.1/linux/gcc_4.8.5/lib/lib32
Slurm Job ID is: 30556558
Slurm Job name is: 18031
ncm0275

                                 *****************
                                 * O   R   C   A *
                                 *****************

                                            #,                                       
                                            ###                                      
                                            ####                                     
                                            #####                                    
                                            ######                                   
                                           ########,                                 
                                     ,,################,,,,,                         
                               ,,#################################,,                 
                          ,,##########################################,,             
                       ,#########################################, ''#####,          
                    ,#############################################,,   '####,        
                  ,##################################################,,,,####,       
                ,###########''''           ''''###############################       
              ,#####''   ,,,,##########,,,,          '''####'''          '####       
            ,##' ,,,,###########################,,,                        '##       
           ' ,,###''''                  '''############,,,                           
         ,,##''                                '''############,,,,        ,,,,,,###''
      ,#''                                            '''#######################'''  
     '                                                          ''''####''''         
             ,#######,   #######,   ,#######,      ##                                
            ,#'     '#,  ##    ##  ,#'     '#,    #''#        ######   ,####,        
            ##       ##  ##   ,#'  ##            #'  '#       #        #'  '#        
            ##       ##  #######   ##           ,######,      #####,   #    #        
            '#,     ,#'  ##    ##  '#,     ,#' ,#      #,         ##   #,  ,#        
             '#######'   ##     ##  '#######'  #'      '#     #####' # '####'        



                  #######################################################
                  #                        -***-                        #
                  #          Department of theory and spectroscopy      #
                  #    Directorship and core code : Frank Neese         #
                  #        Max Planck Institute fuer Kohlenforschung    #
                  #                Kaiser Wilhelm Platz 1               #
                  #                 D-45470 Muelheim/Ruhr               #
                  #                      Germany                        #
                  #                                                     #
                  #                  All rights reserved                #
                  #                        -***-                        #
                  #######################################################


                         Program Version 5.0.3 -  RELEASE  -


 With contributions from (in alphabetic order):
   Daniel Aravena         : Magnetic Suceptibility
   Michael Atanasov       : Ab Initio Ligand Field Theory (pilot matlab implementation)
   Alexander A. Auer      : GIAO ZORA, VPT2 properties, NMR spectrum
   Ute Becker             : Parallelization
   Giovanni Bistoni       : ED, misc. LED, open-shell LED, HFLD
   Martin Brehm           : Molecular dynamics
   Dmytro Bykov           : SCF Hessian
   Vijay G. Chilkuri      : MRCI spin determinant printing, contributions to CSF-ICE
   Dipayan Datta          : RHF DLPNO-CCSD density
   Achintya Kumar Dutta   : EOM-CC, STEOM-CC
   Dmitry Ganyushin       : Spin-Orbit,Spin-Spin,Magnetic field MRCI
   Miquel Garcia          : C-PCM and meta-GGA Hessian, CC/C-PCM, Gaussian charge scheme
   Yang Guo               : DLPNO-NEVPT2, F12-NEVPT2, CIM, IAO-localization
   Andreas Hansen         : Spin unrestricted coupled pair/coupled cluster methods
   Benjamin Helmich-Paris : MC-RPA, TRAH-SCF, COSX integrals
   Lee Huntington         : MR-EOM, pCC
   Robert Izsak           : Overlap fitted RIJCOSX, COSX-SCS-MP3, EOM
   Marcus Kettner         : VPT2
   Christian Kollmar      : KDIIS, OOCD, Brueckner-CCSD(T), CCSD density, CASPT2, CASPT2-K
   Simone Kossmann        : Meta GGA functionals, TD-DFT gradient, OOMP2, MP2 Hessian
   Martin Krupicka        : Initial AUTO-CI
   Lucas Lang             : DCDCAS
   Marvin Lechner         : AUTO-CI (C++ implementation), FIC-MRCC
   Dagmar Lenk            : GEPOL surface, SMD
   Dimitrios Liakos       : Extrapolation schemes; Compound Job, initial MDCI parallelization
   Dimitrios Manganas     : Further ROCIS development; embedding schemes
   Dimitrios Pantazis     : SARC Basis sets
   Anastasios Papadopoulos: AUTO-CI, single reference methods and gradients
   Taras Petrenko         : DFT Hessian,TD-DFT gradient, ASA, ECA, R-Raman, ABS, FL, XAS/XES, NRVS
   Peter Pinski           : DLPNO-MP2, DLPNO-MP2 Gradient
   Christoph Reimann      : Effective Core Potentials
   Marius Retegan         : Local ZFS, SOC
   Christoph Riplinger    : Optimizer, TS searches, QM/MM, DLPNO-CCSD(T), (RO)-DLPNO pert. Triples
   Tobias Risthaus        : Range-separated hybrids, TD-DFT gradient, RPA, STAB
   Michael Roemelt        : Original ROCIS implementation
   Masaaki Saitow         : Open-shell DLPNO-CCSD energy and density
   Barbara Sandhoefer     : DKH picture change effects
   Avijit Sen             : IP-ROCIS
   Kantharuban Sivalingam : CASSCF convergence, NEVPT2, FIC-MRCI
   Bernardo de Souza      : ESD, SOC TD-DFT
   Georgi Stoychev        : AutoAux, RI-MP2 NMR, DLPNO-MP2 response
   Willem Van den Heuvel  : Paramagnetic NMR
   Boris Wezisla          : Elementary symmetry handling
   Frank Wennmohs         : Technical directorship


 We gratefully acknowledge several colleagues who have allowed us to
 interface, adapt or use parts of their codes:
   Stefan Grimme, W. Hujo, H. Kruse, P. Pracht,  : VdW corrections, initial TS optimization,
                  C. Bannwarth, S. Ehlert          DFT functionals, gCP, sTDA/sTD-DF
   Ed Valeev, F. Pavosevic, A. Kumar             : LibInt (2-el integral package), F12 methods
   Garnet Chan, S. Sharma, J. Yang, R. Olivares  : DMRG
   Ulf Ekstrom                                   : XCFun DFT Library
   Mihaly Kallay                                 : mrcc  (arbitrary order and MRCC methods)
   Jiri Pittner, Ondrej Demel                    : Mk-CCSD
   Frank Weinhold                                : gennbo (NPA and NBO analysis)
   Christopher J. Cramer and Donald G. Truhlar   : smd solvation model
   Lars Goerigk                                  : TD-DFT with DH, B97 family of functionals
   V. Asgeirsson, H. Jonsson                     : NEB implementation
   FAccTs GmbH                                   : IRC, NEB, NEB-TS, DLPNO-Multilevel, CI-OPT
                                                   MM, QMMM, 2- and 3-layer-ONIOM, Crystal-QMMM,
                                                   LR-CPCM, SF, NACMEs, symmetry and pop. for TD-DFT,
                                                   nearIR, NL-DFT gradient (VV10), updates on ESD,
                                                   ML-optimized integration grids
   S Lehtola, MJT Oliveira, MAL Marques          : LibXC Library
   Liviu Ungur et al                             : ANISO software


 Your calculation uses the libint2 library for the computation of 2-el integrals
 For citations please refer to: http://libint.valeyev.net

 Your ORCA version has been built with support for libXC version: 5.1.0
 For citations please refer to: https://tddft.org/programs/libxc/

 This ORCA versions uses:
   CBLAS   interface :  Fast vector & matrix operations
   LAPACKE interface :  Fast linear algebra routines
   SCALAPACK package :  Parallel linear algebra routines
   Shared memory     :  Shared parallel matrices
   BLAS/LAPACK       :  OpenBLAS 0.3.15  USE64BITINT DYNAMIC_ARCH NO_AFFINITY SkylakeX SINGLE_THREADED
        Core in use  :  SkylakeX
   Copyright (c) 2011-2014, The OpenBLAS Project


================================================================================

----- Orbital basis set information -----
Your calculation utilizes the basis: EPR-III
   V. Barone, in Recent Advances in Density Functional Methods, Part 1 (ed. D. P. Chong), World Scientific, Singapore, 1995, p. 287.
   N. Rega, M. Cossi and V. Barone, J. Chem. Phys. 105, 11060 (1996).

----- AuxJ basis set information -----
Your calculation utilizes the AutoAux generation procedure.
  G. L. Stoychev, A. A. Auer, F. Neese, J. Chem. Theory Comput. 13, 554 (2017)

----- AuxC basis set information -----
Your calculation utilizes the AutoAux generation procedure.
  G. L. Stoychev, A. A. Auer, F. Neese, J. Chem. Theory Comput. 13, 554 (2017)

----- AuxJK basis set information -----
Your calculation utilizes the AutoAux generation procedure.
  G. L. Stoychev, A. A. Auer, F. Neese, J. Chem. Theory Comput. 13, 554 (2017)

================================================================================
                                        WARNINGS
                       Please study these warnings very carefully!
================================================================================


WARNING: your system is open-shell and RHF/RKS was chosen
  ===> : WILL SWITCH to UHF/UKS


INFO   : the flag for use of the SHARK integral package has been found!

================================================================================
                                       INPUT FILE
================================================================================
NAME = /home/rwth0701/scratch/cs681498/orcajob__30556558-z5kD/18031.inp
|  1> !B3LYP EPR-III Autoaux
|  2> !PAL4
|  3> 
|  4> * xyz 0 2
|  5>  C    -84.9783916008   -112.5011432640    -31.5685936064
|  6>  H    -84.3749650840   -113.4126233750    -31.6146979162
|  7>  H    -84.3769293465   -111.5469003825    -31.4474086921
|  8>  H    -86.0097316813   -112.4902984984    -31.6015686868
|  9> *
| 10> 
| 11> %EPRNMR
| 12>         GTENSOR   TRUE
| 13>         NUCLEI    = ALL H {AISO, ADIP, AORB}
| 14>         NUCLEI    = ALL C {AISO, ADIP, AORB}
| 15> END
| 16> 
| 17> 
| 18>                          ****END OF INPUT****
================================================================================

                       ****************************
                       * Single Point Calculation *
                       ****************************

---------------------------------
CARTESIAN COORDINATES (ANGSTROEM)
---------------------------------
  C    -84.978392  -112.501143  -31.568594
  H    -84.374965  -113.412623  -31.614698
  H    -84.376929  -111.546900  -31.447409
  H    -86.009732  -112.490298  -31.601569

----------------------------
CARTESIAN COORDINATES (A.U.)
----------------------------
  NO LB      ZA    FRAG     MASS         X           Y           Z
   0 C     6.0000    0    12.011  -160.585887  -212.596351  -59.655996
   1 H     1.0000    0     1.008  -159.445577  -214.318798  -59.743121
   2 H     1.0000    0     1.008  -159.449288  -210.793093  -59.426990
   3 H     1.0000    0     1.008  -162.534838  -212.575857  -59.718310

--------------------------------
INTERNAL COORDINATES (ANGSTROEM)
--------------------------------
 C      0   0   0     0.000000000000     0.00000000     0.00000000
 H      1   0   0     1.094095590572     0.00000000     0.00000000
 H      1   2   0     1.134469965973   114.38324281     0.00000000
 H      1   2   3     1.031924089511   123.96086097   181.79963975

---------------------------
INTERNAL COORDINATES (A.U.)
---------------------------
 C      0   0   0     0.000000000000     0.00000000     0.00000000
 H      1   0   0     2.067541030511     0.00000000     0.00000000
 H      1   2   0     2.143837542848   114.38324281     0.00000000
 H      1   2   3     1.950053920173   123.96086097   181.79963975

---------------------
BASIS SET INFORMATION
---------------------
There are 2 groups of distinct atoms

 Group   1 Type C   : 12s8p2d1f contracted to 8s5p2d1f pattern {51111111/41111/11/1}
 Group   2 Type H   : 7s2p contracted to 5s2p pattern {31111/11}

Atom   0C    basis set group =>   1
Atom   1H    basis set group =>   2
Atom   2H    basis set group =>   2
Atom   3H    basis set group =>   2
---------------------------------
AUXILIARY/J BASIS SET INFORMATION
---------------------------------
There are 2 groups of distinct atoms

 Group   1 Type C   : 20s17p16d8f3g contracted to 20s17p16d8f3g pattern {11111111111111111111/11111111111111111/1111111111111111/11111111/111}
 Group   2 Type H   : 17s7p3d contracted to 17s7p3d pattern {11111111111111111/1111111/111}

Atom   0C    basis set group =>   1
Atom   1H    basis set group =>   2
Atom   2H    basis set group =>   2
Atom   3H    basis set group =>   2
---------------------------------
AUXILIARY/C BASIS SET INFORMATION
---------------------------------
There are 2 groups of distinct atoms

 Group   1 Type C   : 20s17p16d8f3g contracted to 20s17p16d8f3g pattern {11111111111111111111/11111111111111111/1111111111111111/11111111/111}
 Group   2 Type H   : 17s7p3d contracted to 17s7p3d pattern {11111111111111111/1111111/111}

Atom   0C    basis set group =>   1
Atom   1H    basis set group =>   2
Atom   2H    basis set group =>   2
Atom   3H    basis set group =>   2
----------------------------------
AUXILIARY/JK BASIS SET INFORMATION
----------------------------------
There are 2 groups of distinct atoms

 Group   1 Type C   : 20s17p16d8f3g contracted to 20s17p16d8f3g pattern {11111111111111111111/11111111111111111/1111111111111111/11111111/111}
 Group   2 Type H   : 17s7p3d contracted to 17s7p3d pattern {11111111111111111/1111111/111}

Atom   0C    basis set group =>   1
Atom   1H    basis set group =>   2
Atom   2H    basis set group =>   2
Atom   3H    basis set group =>   2


           ************************************************************
           *        Program running with 4 parallel MPI-processes     *
           *              working on a common directory               *
           ************************************************************
------------------------------------------------------------------------------
                           ORCA GTO INTEGRAL CALCULATION
                           -- RI-GTO INTEGRALS CHOSEN --
------------------------------------------------------------------------------
------------------------------------------------------------------------------
                   ___                                                        
                  /   \      - P O W E R E D   B Y -                         
                 /     \                                                     
                 |  |  |   _    _      __       _____    __    __             
                 |  |  |  | |  | |    /  \     |  _  \  |  |  /  |          
                  \  \/   | |  | |   /    \    | | | |  |  | /  /          
                 / \  \   | |__| |  /  /\  \   | |_| |  |  |/  /          
                |  |  |   |  __  | /  /__\  \  |    /   |      \           
                |  |  |   | |  | | |   __   |  |    \   |  |\   \          
                \     /   | |  | | |  |  |  |  | |\  \  |  | \   \       
                 \___/    |_|  |_| |__|  |__|  |_| \__\ |__|  \__/        
                                                                              
                      - O R C A' S   B I G   F R I E N D -                    
                                      &                                       
                       - I N T E G R A L  F E E D E R -                       
                                                                              
 v1 FN, 2020, v2 2021                                                         
------------------------------------------------------------------------------


Reading SHARK input file /home/rwth0701/scratch/cs681498/orcajob__30556558-z5kD/18031.SHARKINP.tmp ... ok
----------------------
SHARK INTEGRAL PACKAGE
----------------------

Number of atoms                             ...      4
Number of basis functions                   ...     73
Number of shells                            ...     37
Maximum angular momentum                    ...      3
Integral batch strategy                     ... SHARK/LIBINT Hybrid
RI-J (if used) integral strategy            ... SPLIT-RIJ (Revised 2003 algorithm where possible)
Printlevel                                  ...      1
Contraction scheme used                     ... SEGMENTED contraction
Coulomb Range Separation                    ... NOT USED
Exchange Range Separation                   ... NOT USED
Finite Nucleus Model                        ... NOT USED
Auxiliary Coulomb fitting basis             ... AVAILABLE
   # of basis functions in Aux-J            ...    393
   # of shells in Aux-J                     ...    145
   Maximum angular momentum in Aux-J        ...      4
Auxiliary J/K fitting basis                 ... AVAILABLE
   # of basis functions in Aux-JK           ...    393
   # of shells in Aux-JK                    ...    145
   Maximum angular momentum in Aux-JK       ...      4
Auxiliary Correlation fitting basis         ... AVAILABLE
   # of basis functions in Aux-C            ...    393
   # of shells in Aux-C                     ...    145
   Maximum angular momentum in Aux-C        ...      4
Auxiliary 'external' fitting basis          ... NOT available
Integral threshold                          ...     1.000000e-10
Primitive cut-off                           ...     1.000000e-11
Primitive pair pre-selection threshold      ...     1.000000e-11

Calculating pre-screening integrals         ... done (  0.0 sec) Dimension = 37
Organizing shell pair data                  ... done (  0.0 sec)
Shell pair information
Total number of shell pairs                 ...       703
Shell pairs after pre-screening             ...       688
Total number of primitive shell pairs       ...      1300
Primitive shell pairs kept                  ...      1183
          la=0 lb=0:    261 shell pairs
          la=1 lb=0:    253 shell pairs
          la=1 lb=1:     66 shell pairs
          la=2 lb=0:     46 shell pairs
          la=2 lb=1:     22 shell pairs
          la=2 lb=2:      3 shell pairs
          la=3 lb=0:     23 shell pairs
          la=3 lb=1:     11 shell pairs
          la=3 lb=2:      2 shell pairs
          la=3 lb=3:      1 shell pairs

Calculating one electron integrals          ... done (  0.0 sec)
Calculating RI/J V-Matrix + Cholesky decomp.... done (  0.1 sec)
Calculating RI/JK V-Matrix + Cholesky decomp... done (  0.1 sec)
Calculating RI/C V-Matrix + Cholesky decomp.... done (  0.1 sec)
Calculating Nuclear repulsion               ... done (  0.0 sec) ENN=      9.621659150670 Eh

SHARK setup successfully completed in   0.5 seconds

Maximum memory used throughout the entire GTOINT-calculation: 13.7 MB


           ************************************************************
           *        Program running with 4 parallel MPI-processes     *
           *              working on a common directory               *
           ************************************************************
-------------------------------------------------------------------------------
                                 ORCA SCF
-------------------------------------------------------------------------------

------------
SCF SETTINGS
------------
Hamiltonian:
 Density Functional     Method          .... DFT(GTOs)
 Exchange Functional    Exchange        .... B88
   X-Alpha parameter    XAlpha          ....  0.666667
   Becke's b parameter  XBeta           ....  0.004200
 Correlation Functional Correlation     .... LYP
 LDA part of GGA corr.  LDAOpt          .... VWN-5
 Gradients option       PostSCFGGA      .... off
 Hybrid DFT is turned on
   Fraction HF Exchange ScalHFX         ....  0.200000
   Scaling of DF-GGA-X  ScalDFX         ....  0.720000
   Scaling of DF-GGA-C  ScalDFC         ....  0.810000
   Scaling of DF-LDA-C  ScalLDAC        ....  1.000000
   Perturbative correction              ....  0.000000
   Density functional embedding theory  .... OFF
   NL short-range parameter             ....  4.800000
 RI-approximation to the Coulomb term is turned on
   Number of AuxJ basis functions       .... 393
   RIJ-COSX (HFX calculated with COS-X)).... on


General Settings:
 Integral files         IntName         .... /home/rwth0701/scratch/cs681498/orcajob__30556558-z5kD/18031
 Hartree-Fock type      HFTyp           .... UHF
 Total Charge           Charge          ....    0
 Multiplicity           Mult            ....    2
 Number of Electrons    NEL             ....    9
 Basis Dimension        Dim             ....   73
 Nuclear Repulsion      ENuc            ....      9.6216591507 Eh

Convergence Acceleration:
 DIIS                   CNVDIIS         .... on
   Start iteration      DIISMaxIt       ....    12
   Startup error        DIISStart       ....  0.200000
   # of expansion vecs  DIISMaxEq       ....     5
   Bias factor          DIISBfac        ....   1.050
   Max. coefficient     DIISMaxC        ....  10.000
 Trust-Rad. Augm. Hess. CNVTRAH         .... auto
   Auto Start mean grad. ratio tolernc. ....  1.125000
   Auto Start start iteration           ....    20
   Auto Start num. interpolation iter.  ....    10
   Max. Number of Micro iterations      ....    16
   Max. Number of Macro iterations      .... Maxiter - #DIIS iter
   Number of Davidson start vectors     ....     2
   Converg. threshold I  (grad. norm)   ....   5.000e-05
   Converg. threshold II (energy diff.) ....   1.000e-06
   Grad. Scal. Fac. for Micro threshold ....   0.100
   Minimum threshold for Micro iter.    ....   0.010
   NR start threshold (gradient norm)   ....   0.001
   Initial trust radius                 ....   0.400
   Minimum AH scaling param. (alpha)    ....   1.000
   Maximum AH scaling param. (alpha)    .... 1000.000
   Orbital update algorithm             .... Taylor
   White noise on init. David. guess    .... on
   Maximum white noise                  ....   0.010
   Quad. conv. algorithm                .... NR
 SOSCF                  CNVSOSCF        .... off
 Level Shifting         CNVShift        .... on
   Level shift para.    LevelShift      ....    0.2500
   Turn off err/grad.   ShiftErr        ....    0.0010
 Zerner damping         CNVZerner       .... off
 Static damping         CNVDamp         .... on
   Fraction old density DampFac         ....    0.7000
   Max. Damping (<1)    DampMax         ....    0.9800
   Min. Damping (>=0)   DampMin         ....    0.0000
   Turn off err/grad.   DampErr         ....    0.1000
 Fernandez-Rico         CNVRico         .... off

SCF Procedure:
 Maximum # iterations   MaxIter         ....   125
 SCF integral mode      SCFMode         .... Direct
   Integral package                     .... SHARK and LIBINT hybrid scheme
 Reset frequency        DirectResetFreq ....    20
 Integral Threshold     Thresh          ....  1.000e-10 Eh
 Primitive CutOff       TCut            ....  1.000e-11 Eh

Convergence Tolerance:
 Convergence Check Mode ConvCheckMode   .... Total+1el-Energy
 Convergence forced     ConvForced      .... 0
 Energy Change          TolE            ....  1.000e-06 Eh
 1-El. energy change                    ....  1.000e-03 Eh
 DIIS Error             TolErr          ....  1.000e-06


Diagonalization of the overlap matrix:
Smallest eigenvalue                        ... 1.616e-03
Time for diagonalization                   ...    0.001 sec
Threshold for overlap eigenvalues          ... 1.000e-08
Number of eigenvalues below threshold      ... 0
Time for construction of square roots      ...    0.010 sec
Total time needed                          ...    0.011 sec

Time for model grid setup =    0.042 sec

------------------------------
INITIAL GUESS: MODEL POTENTIAL
------------------------------
Loading Hartree-Fock densities                     ... done
Calculating cut-offs                               ... done
Initializing the effective Hamiltonian             ... done
Setting up the integral package (SHARK)            ... done
Starting the Coulomb interaction                   ... done (   0.0 sec)
Reading the grid                                   ... done
Mapping shells                                     ... done
Starting the XC term evaluation                    ... done (   0.0 sec)
  promolecular density results
     # of electrons  =      8.998561556
     EX              =     -5.967991969
     EC              =     -0.260116454
     EX+EC           =     -6.228108423
Transforming the Hamiltonian                       ... done (   0.0 sec)
Diagonalizing the Hamiltonian                      ... done (   0.0 sec)
Back transforming the eigenvectors                 ... done (   0.0 sec)
Now organizing SCF variables                       ... done
                      ------------------
                      INITIAL GUESS DONE (   0.1 sec)
                      ------------------
-------------------
DFT GRID GENERATION
-------------------

General Integration Accuracy     IntAcc      ... 4.388
Radial Grid Type                 RadialGrid  ... OptM3 with GC (2021)
Angular Grid (max. ang.)         AngularGrid ... 4 (Lebedev-302)
Angular grid pruning method      GridPruning ... 4 (adaptive)
Weight generation scheme         WeightScheme... Becke
Basis function cutoff            BFCut       ... 1.0000e-10
Integration weight cutoff        WCut        ... 1.0000e-14
Angular grids for H and He will be reduced by one unit
Partially contracted basis set               ... off
Rotationally invariant grid construction     ... off

Total number of grid points                  ...    17034
Total number of batches                      ...      268
Average number of points per batch           ...       63
Average number of grid points per atom       ...     4258
Time for grid setup =    0.116 sec

--------------------
COSX GRID GENERATION
--------------------

GRIDX 1
-------
General Integration Accuracy     IntAcc      ... 3.816
Radial Grid Type                 RadialGrid  ... OptM3 with GC (2021)
Angular Grid (max. ang.)         AngularGrid ... 1 (Lebedev-50)
Angular grid pruning method      GridPruning ... 4 (adaptive)
Weight generation scheme         WeightScheme... Becke
Basis function cutoff            BFCut       ... 1.0000e-10
Integration weight cutoff        WCut        ... 1.0000e-14
Angular grids for H and He will be reduced by one unit
Partially contracted basis set               ... on
Rotationally invariant grid construction     ... off

Total number of grid points                  ...     2141
Total number of batches                      ...       35
Average number of points per batch           ...       61
Average number of grid points per atom       ...      535
UseSFitting                                  ... on

GRIDX 2
-------
General Integration Accuracy     IntAcc      ... 4.020
Radial Grid Type                 RadialGrid  ... OptM3 with GC (2021)
Angular Grid (max. ang.)         AngularGrid ... 2 (Lebedev-110)
Angular grid pruning method      GridPruning ... 4 (adaptive)
Weight generation scheme         WeightScheme... Becke
Basis function cutoff            BFCut       ... 1.0000e-10
Integration weight cutoff        WCut        ... 1.0000e-14
Angular grids for H and He will be reduced by one unit
Partially contracted basis set               ... on
Rotationally invariant grid construction     ... off

Total number of grid points                  ...     5041
Total number of batches                      ...       82
Average number of points per batch           ...       61
Average number of grid points per atom       ...     1260
UseSFitting                                  ... on

GRIDX 3
-------
General Integration Accuracy     IntAcc      ... 4.338
Radial Grid Type                 RadialGrid  ... OptM3 with GC (2021)
Angular Grid (max. ang.)         AngularGrid ... 3 (Lebedev-194)
Angular grid pruning method      GridPruning ... 4 (adaptive)
Weight generation scheme         WeightScheme... Becke
Basis function cutoff            BFCut       ... 1.0000e-10
Integration weight cutoff        WCut        ... 1.0000e-14
Angular grids for H and He will be reduced by one unit
Partially contracted basis set               ... on
Rotationally invariant grid construction     ... off

Total number of grid points                  ...    11729
Total number of batches                      ...      186
Average number of points per batch           ...       63
Average number of grid points per atom       ...     2932
UseSFitting                                  ... on

Time for X-Grid setup             =    0.294 sec

--------------
SCF ITERATIONS
--------------
ITER       Energy         Delta-E        Max-DP      RMS-DP      [F,P]     Damp
               ***  Starting incremental Fock matrix formation  ***
  0    -39.7831473609   0.000000000000 0.01518034  0.00049826  0.0897027 0.7000
  1    -39.8018084771  -0.018661116210 0.00949222  0.00037194  0.0471167 0.7000
                               ***Turning on DIIS***
  2    -39.8100590247  -0.008250547551 0.01563965  0.00064810  0.0193523 0.0000
  3    -39.8213166332  -0.011257608492 0.00861775  0.00028091  0.0283522 0.0000
  4    -39.8247776213  -0.003460988162 0.00302963  0.00007895  0.0058632 0.0000
  5    -39.8249191909  -0.000141569519 0.00107814  0.00003287  0.0019380 0.0000
  6    -39.8249367469  -0.000017556050 0.00089958  0.00002542  0.0008228 0.0000
               *** Restarting incremental Fock matrix formation ***
                                   *** Resetting DIIS ***
  7    -39.8249475732  -0.000010826276 0.00009062  0.00000296  0.0000942 0.0000
                 **** Energy Check signals convergence ****

               *****************************************************
               *                     SUCCESS                       *
               *           SCF CONVERGED AFTER   8 CYCLES          *
               *****************************************************

Old exchange energy                            =     -1.239943591 Eh
New exchange energy                            =     -1.239941791 Eh
Exchange energy change after final integration =      0.000001800 Eh
Total energy after final integration           =    -39.824945843 Eh
Final COS-X integration done in                =     0.184 sec

----------------
TOTAL SCF ENERGY
----------------

Total Energy       :          -39.82494584 Eh           -1083.69187 eV

Components:
Nuclear Repulsion  :            9.62165915 Eh             261.81866 eV
Electronic Energy  :          -49.44660499 Eh           -1345.51053 eV
One Electron Energy:          -71.54833749 Eh           -1946.92924 eV
Two Electron Energy:           22.10173249 Eh             601.41872 eV
Max COSX asymmetry :            0.00000006 Eh               0.00000 eV

Virial components:
Potential Energy   :          -79.42944104 Eh           -2161.38497 eV
Kinetic Energy     :           39.60449520 Eh            1077.69310 eV
Virial Ratio       :            2.00556630


DFT components:
N(Alpha)           :        4.999999238147 electrons
N(Beta)            :        4.000000123389 electrons
N(Total)           :        8.999999361536 electrons
E(X)               :       -4.908098350113 Eh       
E(C)               :       -0.309354062554 Eh       
E(XC)              :       -5.217452412667 Eh       
DFET-embed. en.    :        0.000000000000 Eh       

---------------
SCF CONVERGENCE
---------------

  Last Energy change         ...   -6.9953e-08  Tolerance :   1.0000e-06
  Last MAX-Density change    ...    0.0000e+00  Tolerance :   1.0000e-05
  Last RMS-Density change    ...    0.0000e+00  Tolerance :   1.0000e-06
  Last DIIS Error            ...    6.6847e-05  Tolerance :   1.0000e-06

             **** THE GBW FILE WAS UPDATED (/home/rwth0701/scratch/cs681498/orcajob__30556558-z5kD/18031.gbw) ****
             **** DENSITY /home/rwth0701/scratch/cs681498/orcajob__30556558-z5kD/18031.scfp WAS UPDATED ****
             **** ENERGY FILE WAS UPDATED (/home/rwth0701/scratch/cs681498/orcajob__30556558-z5kD/18031.en.tmp) ****
----------------------
UHF SPIN CONTAMINATION
----------------------

Warning: in a DFT calculation there is little theoretical justification to 
         calculate <S**2> as in Hartree-Fock theory. We will do it anyways
         but you should keep in mind that the values have only limited relevance

Expectation value of <S**2>     :     0.753711
Ideal value S*(S+1) for S=0.5   :     0.750000
Deviation                       :     0.003711

             **** THE GBW FILE WAS UPDATED (/home/rwth0701/scratch/cs681498/orcajob__30556558-z5kD/18031.gbw) ****
             **** DENSITY /home/rwth0701/scratch/cs681498/orcajob__30556558-z5kD/18031.scfp WAS UPDATED ****
----------------
ORBITAL ENERGIES
----------------
                 SPIN UP ORBITALS
  NO   OCC          E(Eh)            E(eV) 
   0   1.0000     -10.186171      -277.1798 
   1   1.0000      -0.686631       -18.6842 
   2   1.0000      -0.436741       -11.8843 
   3   1.0000      -0.406352       -11.0574 
   4   1.0000      -0.234945        -6.3932 
   5   0.0000       0.000725         0.0197 
   6   0.0000       0.035462         0.9650 
   7   0.0000       0.037912         1.0316 
   8   0.0000       0.047440         1.2909 
   9   0.0000       0.085818         2.3352 
  10   0.0000       0.091088         2.4786 
  11   0.0000       0.098129         2.6702 
  12   0.0000       0.221888         6.0379 
  13   0.0000       0.222713         6.0603 
  14   0.0000       0.248657         6.7663 
  15   0.0000       0.276022         7.5109 
  16   0.0000       0.290523         7.9055 
  17   0.0000       0.318704         8.6724 
  18   0.0000       0.342846         9.3293 
  19   0.0000       0.556409        15.1406 
  20   0.0000       0.559348        15.2206 
  21   0.0000       0.739764        20.1300 
  22   0.0000       0.743371        20.2281 
  23   0.0000       0.771072        20.9819 
  24   0.0000       0.836259        22.7558 
  25   0.0000       0.886167        24.1138 
  26   0.0000       0.891500        24.2589 
  27   0.0000       0.939645        25.5690 
  28   0.0000       0.961176        26.1549 
  29   0.0000       1.058703        28.8088 
  30   0.0000       1.062976        28.9251 
  31   0.0000       1.113048        30.2876 
  32   0.0000       1.161144        31.5963 
  33   0.0000       1.167158        31.7600 
  34   0.0000       1.451346        39.4931 
  35   0.0000       1.480215        40.2787 
  36   0.0000       1.507403        41.0185 
  37   0.0000       1.693319        46.0775 
  38   0.0000       1.721652        46.8485 
  39   0.0000       1.769168        48.1415 
  40   0.0000       2.711055        73.7716 
  41   0.0000       2.736744        74.4706 
  42   0.0000       2.864004        77.9335 
  43   0.0000       2.896180        78.8091 
  44   0.0000       2.933074        79.8130 
  45   0.0000       2.979977        81.0893 
  46   0.0000       2.984280        81.2064 
  47   0.0000       3.156625        85.8961 
  48   0.0000       3.173985        86.3685 
  49   0.0000       3.245507        88.3147 
  50   0.0000       3.259760        88.7026 
  51   0.0000       3.714354       101.0727 
  52   0.0000       3.753328       102.1333 
  53   0.0000       3.813164       103.7615 
  54   0.0000       3.846517       104.6690 
  55   0.0000       3.967596       107.9638 
  56   0.0000       4.011354       109.1545 
  57   0.0000       4.123955       112.2185 
  58   0.0000       4.169488       113.4575 
  59   0.0000       4.177527       113.6763 
  60   0.0000       4.668687       127.0414 
  61   0.0000       4.977048       135.4323 
  62   0.0000       5.301214       144.2534 
  63   0.0000       5.420674       147.5040 
  64   0.0000       5.560306       151.3036 
  65   0.0000       6.036539       164.2626 
  66   0.0000       6.175245       168.0370 
  67   0.0000       7.739824       210.6113 
  68   0.0000      29.068571       790.9960 
  69   0.0000      37.084793      1009.1285 
  70   0.0000      37.205287      1012.4073 
  71   0.0000      37.256440      1013.7993 
  72   0.0000     133.525844      3633.4229 

                 SPIN DOWN ORBITALS
  NO   OCC          E(Eh)            E(eV) 
   0   1.0000     -10.171693      -276.7858 
   1   1.0000      -0.647066       -17.6076 
   2   1.0000      -0.427140       -11.6231 
   3   1.0000      -0.397169       -10.8075 
   4   0.0000      -0.077363        -2.1052 
   5   0.0000       0.003927         0.1069 
   6   0.0000       0.035103         0.9552 
   7   0.0000       0.037556         1.0219 
   8   0.0000       0.060707         1.6519 
   9   0.0000       0.086666         2.3583 
  10   0.0000       0.096229         2.6185 
  11   0.0000       0.099051         2.6953 
  12   0.0000       0.223541         6.0828 
  13   0.0000       0.223644         6.0857 
  14   0.0000       0.268214         7.2985 
  15   0.0000       0.295795         8.0490 
  16   0.0000       0.310458         8.4480 
  17   0.0000       0.324193         8.8218 
  18   0.0000       0.355751         9.6805 
  19   0.0000       0.583503        15.8779 
  20   0.0000       0.585991        15.9456 
  21   0.0000       0.742322        20.1996 
  22   0.0000       0.744647        20.2629 
  23   0.0000       0.797198        21.6929 
  24   0.0000       0.834158        22.6986 
  25   0.0000       0.890084        24.2204 
  26   0.0000       0.895892        24.3785 
  27   0.0000       0.957570        26.0568 
  28   0.0000       0.980805        26.6891 
  29   0.0000       1.080587        29.4043 
  30   0.0000       1.121047        30.5052 
  31   0.0000       1.136301        30.9203 
  32   0.0000       1.174181        31.9511 
  33   0.0000       1.178824        32.0774 
  34   0.0000       1.469326        39.9824 
  35   0.0000       1.487411        40.4745 
  36   0.0000       1.518935        41.3323 
  37   0.0000       1.698979        46.2316 
  38   0.0000       1.730584        47.0916 
  39   0.0000       1.776788        48.3489 
  40   0.0000       2.752204        74.8913 
  41   0.0000       2.777313        75.5745 
  42   0.0000       2.866572        78.0034 
  43   0.0000       2.936626        79.9097 
  44   0.0000       2.973072        80.9014 
  45   0.0000       2.987907        81.3051 
  46   0.0000       3.038374        82.6784 
  47   0.0000       3.209080        87.3235 
  48   0.0000       3.223528        87.7167 
  49   0.0000       3.302595        89.8682 
  50   0.0000       3.318735        90.3074 
  51   0.0000       3.753310       102.1327 
  52   0.0000       3.773328       102.6775 
  53   0.0000       3.814785       103.8056 
  54   0.0000       3.844895       104.6249 
  55   0.0000       3.982799       108.3775 
  56   0.0000       4.028193       109.6127 
  57   0.0000       4.126979       112.3008 
  58   0.0000       4.181329       113.7797 
  59   0.0000       4.193931       114.1227 
  60   0.0000       4.668788       127.0442 
  61   0.0000       4.997663       135.9933 
  62   0.0000       5.300943       144.2460 
  63   0.0000       5.418919       147.4563 
  64   0.0000       5.558551       151.2559 
  65   0.0000       6.038432       164.3141 
  66   0.0000       6.178671       168.1302 
  67   0.0000       7.775096       211.5711 
  68   0.0000      29.095454       791.7276 
  69   0.0000      37.072470      1008.7932 
  70   0.0000      37.193126      1012.0764 
  71   0.0000      37.245162      1013.4924 
  72   0.0000     133.533729      3633.6375 

                    ********************************
                    * MULLIKEN POPULATION ANALYSIS *
                    ********************************

--------------------------------------------
MULLIKEN ATOMIC CHARGES AND SPIN POPULATIONS
--------------------------------------------
   0 C :   -0.427332    1.104438
   1 H :    0.141101   -0.035537
   2 H :    0.135389   -0.038269
   3 H :    0.150842   -0.030633
Sum of atomic charges         :    0.0000000
Sum of atomic spin populations:    1.0000000

-----------------------------------------------------
MULLIKEN REDUCED ORBITAL CHARGES AND SPIN POPULATIONS
-----------------------------------------------------
CHARGE
  0 C s       :     3.335506  s :     3.335506
      pz      :     0.968922  p :     3.064947
      px      :     1.051582
      py      :     1.044442
      dz2     :     0.005677  d :     0.023844
      dxz     :     0.000114
      dyz     :     0.000231
      dx2y2   :     0.007727
      dxy     :     0.010094
      f0      :     0.000045  f :     0.003034
      f+1     :     0.000749
      f-1     :     0.000606
      f+2     :     0.000017
      f-2     :     0.000033
      f+3     :     0.001549
      f-3     :     0.000035
  1 H s       :     0.832677  s :     0.832677
      pz      :     0.010312  p :     0.026222
      px      :     0.007222
      py      :     0.008688
  2 H s       :     0.840321  s :     0.840321
      pz      :     0.009566  p :     0.024291
      px      :     0.006541
      py      :     0.008184
  3 H s       :     0.820004  s :     0.820004
      pz      :     0.011760  p :     0.029154
      px      :     0.010145
      py      :     0.007249

SPIN
  0 C s       :     0.067124  s :     0.067124
      pz      :     0.959136  p :     1.041648
      px      :     0.036888
      py      :     0.045625
      dz2     :    -0.004637  d :    -0.002985
      dxz     :    -0.000015
      dyz     :    -0.000097
      dx2y2   :     0.000715
      dxy     :     0.001050
      f0      :    -0.000028  f :    -0.001349
      f+1     :    -0.000658
      f-1     :    -0.000571
      f+2     :    -0.000010
      f-2     :    -0.000017
      f+3     :    -0.000065
      f-3     :    -0.000000
  1 H s       :    -0.045427  s :    -0.045427
      pz      :     0.010246  p :     0.009890
      px      :    -0.000195
      py      :    -0.000161
  2 H s       :    -0.047363  s :    -0.047363
      pz      :     0.009455  p :     0.009094
      px      :    -0.000217
      py      :    -0.000144
  3 H s       :    -0.042130  s :    -0.042130
      pz      :     0.011687  p :     0.011498
      px      :    -0.000058
      py      :    -0.000132


                     *******************************
                     * LOEWDIN POPULATION ANALYSIS *
                     *******************************

-------------------------------------------
LOEWDIN ATOMIC CHARGES AND SPIN POPULATIONS
-------------------------------------------
   0 C :   -0.152398    0.909867
   1 H :    0.055568    0.028650
   2 H :    0.072538    0.022349
   3 H :    0.024292    0.039133

----------------------------------------------------
LOEWDIN REDUCED ORBITAL CHARGES AND SPIN POPULATIONS
----------------------------------------------------
CHARGE
  0 C s       :     2.886066  s :     2.886066
      pz      :     0.875907  p :     3.167635
      px      :     1.153318
      py      :     1.138410
      dz2     :     0.007013  d :     0.091239
      dxz     :     0.000432
      dyz     :     0.000616
      dx2y2   :     0.035913
      dxy     :     0.047264
      f0      :     0.000284  f :     0.007458
      f+1     :     0.002122
      f-1     :     0.001715
      f+2     :     0.000041
      f-2     :     0.000098
      f+3     :     0.003122
      f-3     :     0.000077
  1 H s       :     0.803184  s :     0.803184
      pz      :     0.040978  p :     0.141248
      px      :     0.041354
      py      :     0.058916
  2 H s       :     0.798597  s :     0.798597
      pz      :     0.036953  p :     0.128865
      px      :     0.036685
      py      :     0.055228
  3 H s       :     0.814203  s :     0.814203
      pz      :     0.048733  p :     0.161504
      px      :     0.075717
      py      :     0.037054

SPIN
  0 C s       :     0.019460  s :     0.019460
      pz      :     0.864970  p :     0.899239
      px      :     0.013158
      py      :     0.021111
      dz2     :    -0.004014  d :    -0.007510
      dxz     :    -0.000031
      dyz     :    -0.000110
      dx2y2   :    -0.001375
      dxy     :    -0.001980
      f0      :     0.000146  f :    -0.001322
      f+1     :    -0.000600
      f-1     :    -0.000524
      f+2     :    -0.000008
      f-2     :    -0.000019
      f+3     :    -0.000310
      f-3     :    -0.000006
  1 H s       :    -0.017446  s :    -0.017446
      pz      :     0.040631  p :     0.046095
      px      :     0.001849
      py      :     0.003615
  2 H s       :    -0.019040  s :    -0.019040
      pz      :     0.036257  p :     0.041390
      px      :     0.001633
      py      :     0.003500
  3 H s       :    -0.015294  s :    -0.015294
      pz      :     0.048358  p :     0.054428
      px      :     0.004931
      py      :     0.001138


                      *****************************
                      * MAYER POPULATION ANALYSIS *
                      *****************************

  NA   - Mulliken gross atomic population
  ZA   - Total nuclear charge
  QA   - Mulliken gross atomic charge
  VA   - Mayer's total valence
  BVA  - Mayer's bonded valence
  FA   - Mayer's free valence

  ATOM       NA         ZA         QA         VA         BVA        FA
  0 C      6.4273     6.0000    -0.4273     3.8760     2.9304     0.9457
  1 H      0.8589     1.0000     0.1411     0.9824     0.9804     0.0020
  2 H      0.8646     1.0000     0.1354     0.9825     0.9803     0.0022
  3 H      0.8492     1.0000     0.1508     0.9848     0.9830     0.0018

  Mayer bond orders larger than 0.100000
B(  0-C ,  1-H ) :   0.9768 B(  0-C ,  2-H ) :   0.9772 B(  0-C ,  3-H ) :   0.9763 


-------
TIMINGS
-------

Total SCF time: 0 days 0 hours 0 min 6 sec 

Total time                  ....       6.040 sec
Sum of individual times     ....       5.287 sec  ( 87.5%)

Fock matrix formation       ....       4.547 sec  ( 75.3%)
  Split-RI-J                ....       0.396 sec  (  8.7% of F)
  Chain of spheres X        ....       1.058 sec  ( 23.3% of F)
  XC integration            ....       1.981 sec  ( 43.6% of F)
    Basis function eval.    ....       0.114 sec  (  5.7% of XC)
    Density eval.           ....       0.121 sec  (  6.1% of XC)
    XC-Functional eval.     ....       0.105 sec  (  5.3% of XC)
    XC-Potential eval.      ....       0.160 sec  (  8.1% of XC)
Diagonalization             ....       0.055 sec  (  0.9%)
Density matrix formation    ....       0.003 sec  (  0.0%)
Population analysis         ....       0.067 sec  (  1.1%)
Initial guess               ....       0.046 sec  (  0.8%)
Orbital Transformation      ....       0.000 sec  (  0.0%)
Orbital Orthonormalization  ....       0.000 sec  (  0.0%)
DIIS solution               ....       0.116 sec  (  1.9%)
Grid generation             ....       0.452 sec  (  7.5%)

Maximum memory used throughout the entire SCF-calculation: 59.0 MB

-------------------------   --------------------
FINAL SINGLE POINT ENERGY       -39.824945842884
-------------------------   --------------------

   --->>> g-tensor requested, so NeedSOC=true

                            ***************************************
                            *     ORCA property calculations      *
                            ***************************************

                                    ---------------------
                                    Active property flags
                                    ---------------------
   (+) Dipole Moment
   (+) g-tensor
   (+) Nuclear properties (Hyperfine,Quadrupole)
   (+) Spin-Orbit Integrals are needed


------------------------------------------------------------------------------
                       ORCA ELECTRIC PROPERTIES CALCULATION
------------------------------------------------------------------------------

Dipole Moment Calculation                       ... on
Quadrupole Moment Calculation                   ... off
Polarizability Calculation                      ... off
GBWName                                         ... /home/rwth0701/scratch/cs681498/orcajob__30556558-z5kD/18031.gbw
Electron density                                ... /home/rwth0701/scratch/cs681498/orcajob__30556558-z5kD/18031.scfp
The origin for moment calculation is the CENTER OF MASS  = (-160.563900, -212.589559 -59.650662)

-------------
DIPOLE MOMENT
-------------
                                X             Y             Z
Electronic contribution:     -0.12929      -0.04500      -0.02351
Nuclear contribution   :      0.13007       0.04018       0.03156
                        -----------------------------------------
Total Dipole Moment    :      0.00078      -0.00482       0.00805
                        -----------------------------------------
Magnitude (a.u.)       :      0.00941
Magnitude (Debye)      :      0.02393



--------------------
Rotational spectrum 
--------------------
 
Rotational constants in cm-1:     9.570847     9.293798     4.715768 
Rotational constants in MHz : 286926.777970 278621.049467 141375.168728 

 Dipole components along the rotational axes: 
x,y,z [a.u.] :    -0.000590    -0.004196     0.008407 
x,y,z [Debye]:    -0.001499    -0.010667     0.021368 

 


           ************************************************************
           *        Program running with 4 parallel MPI-processes     *
           *              working on a common directory               *
           ************************************************************
------------------------------------------------------------------------------
                         ORCA SPIN-ORBIT COUPLING CALCULATION
------------------------------------------------------------------------------

GBW file                                    ... /home/rwth0701/scratch/cs681498/orcajob__30556558-z5kD/18031.gbw
Input density                               ... /home/rwth0701/scratch/cs681498/orcajob__30556558-z5kD/18031.scfp
Output integrals                            ... /home/rwth0701/scratch/cs681498/orcajob__30556558-z5kD/18031
Operator type                               ... Mean-field/Effective potential
   One-Electron Terms                       ... 1
   Coulomb Contribution                     ... 3
   Exchange Contribution                    ... 3
   Correlation Contribution                 ... 0
   Maximum number of centers                ... 4
SHARK 2-electron RIJ-SOMF                   ... done (  0.2 sec)
SHARK 1-electron  MaxCenter=4               ... done (  0.0 sec)
SHARK 2-electron DoJ,X=0,1 MaxCenter=1      ... done (  0.1 sec)

Maximum memory used throughout the entire SOC-calculation: 11.3 MB
Total time for SOC:  2.368


           ************************************************************
           *        Program running with 4 parallel MPI-processes     *
           *              working on a common directory               *
           ************************************************************
------------------------------------------------------------------------------
                                ORCA EPR/NMR CALCULATION
------------------------------------------------------------------------------

GBWName                      ... /home/rwth0701/scratch/cs681498/orcajob__30556558-z5kD/18031.gbw
Electron density             ... /home/rwth0701/scratch/cs681498/orcajob__30556558-z5kD/18031.scfp
Spin density                 ... /home/rwth0701/scratch/cs681498/orcajob__30556558-z5kD/18031.scfr
Spin-orbit integrals         ... /home/rwth0701/scratch/cs681498/orcajob__30556558-z5kD/18031
Treatment of gauge           ... GIAO (approximations 1/2el = 0,0)
Details of the CP(SCF) procedure:
       Solver   = POPLE   
       MaxIter  =    64   
       Tolerance=    1.000e-03
       COSX Grid=     1   
       Op-0     =   0-  4 =>   5- 72
       Op-1     =   0-  3 =>   4- 72
Multiplicity                 ... 2
g-tensor                     ... 1
NMR chemical shifts          ... 0
NMR spin-spin couplings      ... 0
NMR spectrum                 ... 0
Number of nuclei for epr/nmr ... 4
   Nucleus:   1H 
       Hyperfine : Isotope=    1 I=   0.500 P= 533.551
       Quadrupole: Isotope=    2 I=   1.000 Q=   0.003
       Spin-Orbit: Zeff=   1.000
       Nuclear Spin-Spin: Gn=   0.000
       EPRNMR Input: 
       rho(0)=N f(grad)=N a(iso)=Y a(dip)=Y a(orb)=Y sigma(nmr)=N spin-spin(nmr)=all-N,DSO-N,PSO-N,FC-N,SD-N
   Nucleus:   2H 
       Hyperfine : Isotope=    1 I=   0.500 P= 533.551
       Quadrupole: Isotope=    2 I=   1.000 Q=   0.003
       Spin-Orbit: Zeff=   1.000
       Nuclear Spin-Spin: Gn=   0.000
       EPRNMR Input: 
       rho(0)=N f(grad)=N a(iso)=Y a(dip)=Y a(orb)=Y sigma(nmr)=N spin-spin(nmr)=all-N,DSO-N,PSO-N,FC-N,SD-N
   Nucleus:   3H 
       Hyperfine : Isotope=    1 I=   0.500 P= 533.551
       Quadrupole: Isotope=    2 I=   1.000 Q=   0.003
       Spin-Orbit: Zeff=   1.000
       Nuclear Spin-Spin: Gn=   0.000
       EPRNMR Input: 
       rho(0)=N f(grad)=N a(iso)=Y a(dip)=Y a(orb)=Y sigma(nmr)=N spin-spin(nmr)=all-N,DSO-N,PSO-N,FC-N,SD-N
   Nucleus:   0C 
       Hyperfine : Isotope=   13 I=   0.500 P= 134.190
       Quadrupole: Isotope=   13 I=   0.500 Q=   0.000
       Spin-Orbit: Zeff=   3.600
       Nuclear Spin-Spin: Gn=   0.000
       EPRNMR Input: 
       rho(0)=N f(grad)=N a(iso)=Y a(dip)=Y a(orb)=Y sigma(nmr)=N spin-spin(nmr)=all-N,DSO-N,PSO-N,FC-N,SD-N
Forming RHS of the CP-SCF equations         ... 
Calculating right hand sides for GIAO treatment        ... 
  Entering RightHandSide GIAO. ScalHFX=    0.2000 NeedHFX=1
     -> 1-electron GIAO integrals will be done analytically
     -> RIJCOSX used in SCF. Same chosen for GIAO calculation.
     Making grid for GIAO integrations   ...

GRID GIAO
---------

General Integration Accuracy     IntAcc      ... 4.388
Radial Grid Type                 RadialGrid  ... OptM3 with GC (2021)
Angular Grid (max. ang.)         AngularGrid ... 4 (Lebedev-302)
Angular grid pruning method      GridPruning ... 4 (adaptive)
Weight generation scheme         WeightScheme... Becke
Basis function cutoff            BFCut       ... 1.0000e-10
Integration weight cutoff        WCut        ... 1.0000e-14
Angular grids for H and He will be reduced by one unit
Partially contracted basis set               ... off
Rotationally invariant grid construction     ... off

Total number of grid points                  ...    17034
Total number of batches                      ...      268
Average number of points per batch           ...       63
Average number of grid points per atom       ...     4258

  One-electron GIAO integrals (SHARK)     ... done
  Calculating G(B)[P]                     ... (RI-J: SHARK-ok) (COSX-ok) (add-J+K:ok) => dG/dB done
  DFT XC-terms                            ... done
  Extracting occupied and virtual blocks  ... 
  Operator  0  NO=   5 NV=  68 
  Operator  1  NO=   4 NV=  69 
  Transforming and RHS contribution       ... done
  Adding eps_i * S(B)_ai terms            ... done
  Projecting overlap derivatives          ... done
  Building G[dS/dB_ij] (COSX)             ... done
  Transforming to MO basis                ... done
  Summing G[dS/dB_ij] into RHS contribs.  ... done

  GIAO profiling information: 
    Total GIAO time               ...       0.8 sec
       GIAO 1-electron integrals  ...       0.0 sec (  0.9%)
       GIAO G(dS/dB) terms        ...       0.1 sec ( 12.4%)
       GIAO RI-J                  ...       0.1 sec ( 12.7%)
       GIAO COSX                  ...       0.2 sec ( 18.5%)
       GIAO XC-terms              ...       0.3 sec ( 35.9%)

  GIAO right hand side done


------------------------------------------------------------------------------
                           ORCA CP-SCF CALCULATION
------------------------------------------------------------------------------

Input orbitals are from        ... /home/rwth0701/scratch/cs681498/orcajob__30556558-z5kD/18031.gbw
Input Perturbation             ... /home/rwth0701/scratch/cs681498/orcajob__30556558-z5kD/18031.pin.tmp
Wavefunction output            ... /home/rwth0701/scratch/cs681498/orcajob__30556558-z5kD/18031.pout.tmp
Perturbation mode              ... Imaginary perturbation
Solver                         ... POPLE
Max. number of iterations      ... 64
Convergence tolerance          ... 1.000e-03
Integral handling              ... Direct
DFT GridXC                     ... 1
COSX GridX                     ... 1
COSX IntAccX                   ... 3.067
COSX Algorithm                 ... Auto
Number of perturbations        ... 3
Number of operators            ... 2
Orbital ranges used for CP-SCF:
 Operator 0:  Orbitals   0...  4  to   5... 72
 Operator 1:  Orbitals   0...  3  to   4... 72
Variables per perturbation     ... 616
DFT calculation                         ... on
XC functional terms                     ... off
Hybrid DFT                              ... on
   Exchange mixing (SCF)                ...  0.200
   Exchange mixing (CP-SCF)             ...  0.200
   GGA exch. scaling(SCF)               ...  0.720
   GGA exch. scaling (CP-SCF)           ...  0.720
   GGA corr. scaling (SCF)              ...  0.810
   GGA corr. scaling (CP-SCF)           ...  0.810

CP-SCF GRID
-----------

General Integration Accuracy     IntAcc      ... 3.467
Radial Grid Type                 RadialGrid  ... OptM3 with GC (2021)
Angular Grid (max. ang.)         AngularGrid ... 1 (Lebedev-50)
Angular grid pruning method      GridPruning ... 4 (adaptive)
Weight generation scheme         WeightScheme... Becke
Basis function cutoff            BFCut       ... 1.0000e-10
Integration weight cutoff        WCut        ... 1.0000e-14
Angular grids for H and He will be reduced by one unit
Partially contracted basis set               ... off
Rotationally invariant grid construction     ... off

Total number of grid points                  ...     2333
Total number of batches                      ...       38
Average number of points per batch           ...       61
Average number of grid points per atom       ...      583

CP-SCF GRIDX
------------

General Integration Accuracy     IntAcc      ... 3.067
Radial Grid Type                 RadialGrid  ... OptM3 with GC (2021)
Angular Grid (max. ang.)         AngularGrid ... 1 (Lebedev-50)
Angular grid pruning method      GridPruning ... 4 (adaptive)
Weight generation scheme         WeightScheme... Becke
Basis function cutoff            BFCut       ... 1.0000e-10
Integration weight cutoff        WCut        ... 1.0000e-14
Angular grids for H and He will be reduced by one unit
Partially contracted basis set               ... on
Rotationally invariant grid construction     ... off

Total number of grid points                  ...     1069
Total number of batches                      ...       20
Average number of points per batch           ...       53
Average number of grid points per atom       ...      267

Memory available               ... 1014.6 MB
Memory needed per perturbation ...   0.4 MB
Perturbations treated per batch... 3
Number of batches              ... 1
     CP-SCF ITERATION   0:   1.1461e+01 (   0.1 sec   0/  3 done)
     CP-SCF ITERATION   1:   8.9338e-02 (   0.1 sec   0/  3 done)
     CP-SCF ITERATION   2:   3.3652e-03 (   0.1 sec   0/  3 done)
     CP-SCF ITERATION   3:   1.8087e-04 (   0.1 sec   3/  3 done)
                    *** THE CP-SCF HAS CONVERGED ***

Forming final perturbed densities           ... done
Transforming perturbed density to AO basis  ... done

Magnetic field perturbation calculated in  1.343 sec
GIAO: Diamagnetic terms      (analytic)     (SHARK) ... done
GIAO: 1el-Paramagnetic terms (analytic)     (SHARK) ... done

-------------------
ELECTRONIC G-MATRIX
-------------------

 The g-matrix: 
              2.0028920    0.0000015    0.0000280
              0.0000002    2.0028909    0.0000586
              0.0000394    0.0000761    2.0022429

 gel          2.0023193    2.0023193    2.0023193
 gRMC        -0.0001271   -0.0001271   -0.0001271
 gDSO(tot)    0.0000343    0.0000711    0.0000708
 gPSO(tot)    0.0000078    0.0006277    0.0006376
             ----------   ----------   ----------
 g(tot)       2.0022343    2.0028910    2.0029006 iso=  2.0026753
 Delta-g     -0.0000850    0.0005717    0.0005813 iso=  0.0003560
 Orientation: 
  X          -0.0508326   -0.8463909   -0.5301307
  Y          -0.1018128    0.5324432   -0.8403204
  Z           0.9935040    0.0112584   -0.1132389

Notes:  (1) The g-matrix conforms to the "BgS" spin Hamiltonian convention. 
        (2) The principal values are square roots of the eigenvalues of g*gT.
        (3) Orientations are eigenvectors of g*gT written as column vectors.
        (4) Individual contributions are projections of the full matrices onto the eigenvectors of g*gT.
        (5) Tensor is right-handed.


-----------------------------------------
ELECTRIC AND MAGNETIC HYPERFINE STRUCTURE
-----------------------------------------

 -----------------------------------------------------------
 Nucleus   1H : A:ISTP=    1 I=  0.5 P=533.5514 MHz/au**3
                Q:ISTP=    2 I=  1.0 Q=  0.0029 barn     
 -----------------------------------------------------------
 Solving for nuclear perturbation:
Forming RHS of the CP-SCF equations         ... 
Calc. nucleus orbit integrals (SHARK)       ... done

------------------------------------------------------------------------------
                           ORCA CP-SCF CALCULATION
------------------------------------------------------------------------------

Input orbitals are from        ... /home/rwth0701/scratch/cs681498/orcajob__30556558-z5kD/18031.gbw
Input Perturbation             ... /home/rwth0701/scratch/cs681498/orcajob__30556558-z5kD/18031.pin.tmp
Wavefunction output            ... /home/rwth0701/scratch/cs681498/orcajob__30556558-z5kD/18031.pout.tmp
Perturbation mode              ... Imaginary perturbation
Solver                         ... POPLE
Max. number of iterations      ... 64
Convergence tolerance          ... 1.000e-03
Integral handling              ... Direct
DFT GridXC                     ... 1
COSX GridX                     ... 1
COSX IntAccX                   ... 3.067
COSX Algorithm                 ... Auto
Number of perturbations        ... 3
Number of operators            ... 2
Orbital ranges used for CP-SCF:
 Operator 0:  Orbitals   0...  4  to   5... 72
 Operator 1:  Orbitals   0...  3  to   4... 72
Variables per perturbation     ... 616
DFT calculation                         ... on
XC functional terms                     ... off
Hybrid DFT                              ... on
   Exchange mixing (SCF)                ...  0.200
   Exchange mixing (CP-SCF)             ...  0.200
   GGA exch. scaling(SCF)               ...  0.720
   GGA exch. scaling (CP-SCF)           ...  0.720
   GGA corr. scaling (SCF)              ...  0.810
   GGA corr. scaling (CP-SCF)           ...  0.810

CP-SCF GRID
-----------

General Integration Accuracy     IntAcc      ... 3.467
Radial Grid Type                 RadialGrid  ... OptM3 with GC (2021)
Angular Grid (max. ang.)         AngularGrid ... 1 (Lebedev-50)
Angular grid pruning method      GridPruning ... 4 (adaptive)
Weight generation scheme         WeightScheme... Becke
Basis function cutoff            BFCut       ... 1.0000e-10
Integration weight cutoff        WCut        ... 1.0000e-14
Angular grids for H and He will be reduced by one unit
Partially contracted basis set               ... off
Rotationally invariant grid construction     ... off

Total number of grid points                  ...     2333
Total number of batches                      ...       38
Average number of points per batch           ...       61
Average number of grid points per atom       ...      583

CP-SCF GRIDX
------------

General Integration Accuracy     IntAcc      ... 3.067
Radial Grid Type                 RadialGrid  ... OptM3 with GC (2021)
Angular Grid (max. ang.)         AngularGrid ... 1 (Lebedev-50)
Angular grid pruning method      GridPruning ... 4 (adaptive)
Weight generation scheme         WeightScheme... Becke
Basis function cutoff            BFCut       ... 1.0000e-10
Integration weight cutoff        WCut        ... 1.0000e-14
Angular grids for H and He will be reduced by one unit
Partially contracted basis set               ... on
Rotationally invariant grid construction     ... off

Total number of grid points                  ...     1069
Total number of batches                      ...       20
Average number of points per batch           ...       53
Average number of grid points per atom       ...      267

Memory available               ... 968.0 MB
Memory needed per perturbation ...   0.4 MB
Perturbations treated per batch... 3
Number of batches              ... 1
     CP-SCF ITERATION   0:   6.2332e-02 (   0.1 sec   0/  3 done)
     CP-SCF ITERATION   1:   2.4443e-03 (   0.1 sec   1/  3 done)
     CP-SCF ITERATION   2:   2.0199e-04 (   0.1 sec   3/  3 done)
                    *** THE CP-SCF HAS CONVERGED ***

Forming final perturbed densities           ... done
Transforming perturbed density to AO basis  ... done

 Raw HFC matrix (all values in MHz): 
 -----------------------------------
               -80.5800             -35.2982              -3.5956
               -35.2994             -50.5886              -0.5514
                -3.5957              -0.5513             -65.0899

 A(FC)         -65.4336             -65.4336             -65.4336
 A(SD)          38.2502               0.5620             -38.8121
 A(ORB+DIA)      0.0126              -0.0007               0.0304    A(PC) =   0.0141
 A(ORB)          0.0078               0.0005               0.0291    A(PC) =   0.0125
 A(DIA)          0.0048              -0.0011               0.0014    A(PC) =   0.0017
             ----------           ----------           ----------
 A(Tot)        -27.1708             -64.8723            -104.2153    A(iso)=  -65.4195
 Orientation: 
  X           0.5528091            0.0479574            0.8319268
  Y          -0.8323320            0.0800788            0.5484622
  Z          -0.0403168           -0.9956342            0.0841847

Notes:  (1) The A matrix conforms to the "SAI" spin Hamiltonian convention.
        (2) Tensor is right-handed.

 -----------------------------------------------------------
 Nucleus   2H : A:ISTP=    1 I=  0.5 P=533.5514 MHz/au**3
                Q:ISTP=    2 I=  1.0 Q=  0.0029 barn     
 -----------------------------------------------------------
 Solving for nuclear perturbation:
Forming RHS of the CP-SCF equations         ... 
Calc. nucleus orbit integrals (SHARK)       ... done

------------------------------------------------------------------------------
                           ORCA CP-SCF CALCULATION
------------------------------------------------------------------------------

Input orbitals are from        ... /home/rwth0701/scratch/cs681498/orcajob__30556558-z5kD/18031.gbw
Input Perturbation             ... /home/rwth0701/scratch/cs681498/orcajob__30556558-z5kD/18031.pin.tmp
Wavefunction output            ... /home/rwth0701/scratch/cs681498/orcajob__30556558-z5kD/18031.pout.tmp
Perturbation mode              ... Imaginary perturbation
Solver                         ... POPLE
Max. number of iterations      ... 64
Convergence tolerance          ... 1.000e-03
Integral handling              ... Direct
DFT GridXC                     ... 1
COSX GridX                     ... 1
COSX IntAccX                   ... 3.067
COSX Algorithm                 ... Auto
Number of perturbations        ... 3
Number of operators            ... 2
Orbital ranges used for CP-SCF:
 Operator 0:  Orbitals   0...  4  to   5... 72
 Operator 1:  Orbitals   0...  3  to   4... 72
Variables per perturbation     ... 616
DFT calculation                         ... on
XC functional terms                     ... off
Hybrid DFT                              ... on
   Exchange mixing (SCF)                ...  0.200
   Exchange mixing (CP-SCF)             ...  0.200
   GGA exch. scaling(SCF)               ...  0.720
   GGA exch. scaling (CP-SCF)           ...  0.720
   GGA corr. scaling (SCF)              ...  0.810
   GGA corr. scaling (CP-SCF)           ...  0.810

CP-SCF GRID
-----------

General Integration Accuracy     IntAcc      ... 3.467
Radial Grid Type                 RadialGrid  ... OptM3 with GC (2021)
Angular Grid (max. ang.)         AngularGrid ... 1 (Lebedev-50)
Angular grid pruning method      GridPruning ... 4 (adaptive)
Weight generation scheme         WeightScheme... Becke
Basis function cutoff            BFCut       ... 1.0000e-10
Integration weight cutoff        WCut        ... 1.0000e-14
Angular grids for H and He will be reduced by one unit
Partially contracted basis set               ... off
Rotationally invariant grid construction     ... off

Total number of grid points                  ...     2333
Total number of batches                      ...       38
Average number of points per batch           ...       61
Average number of grid points per atom       ...      583

CP-SCF GRIDX
------------

General Integration Accuracy     IntAcc      ... 3.067
Radial Grid Type                 RadialGrid  ... OptM3 with GC (2021)
Angular Grid (max. ang.)         AngularGrid ... 1 (Lebedev-50)
Angular grid pruning method      GridPruning ... 4 (adaptive)
Weight generation scheme         WeightScheme... Becke
Basis function cutoff            BFCut       ... 1.0000e-10
Integration weight cutoff        WCut        ... 1.0000e-14
Angular grids for H and He will be reduced by one unit
Partially contracted basis set               ... on
Rotationally invariant grid construction     ... off

Total number of grid points                  ...     1069
Total number of batches                      ...       20
Average number of points per batch           ...       53
Average number of grid points per atom       ...      267

Memory available               ... 967.8 MB
Memory needed per perturbation ...   0.4 MB
Perturbations treated per batch... 3
Number of batches              ... 1
     CP-SCF ITERATION   0:   5.6301e-02 (   0.1 sec   0/  3 done)
     CP-SCF ITERATION   1:   2.1252e-03 (   0.1 sec   1/  3 done)
     CP-SCF ITERATION   2:   1.7397e-04 (   0.1 sec   3/  3 done)
                    *** THE CP-SCF HAS CONVERGED ***

Forming final perturbed densities           ... done
Transforming perturbed density to AO basis  ... done

 Raw HFC matrix (all values in MHz): 
 -----------------------------------
               -81.7930              32.7512               2.5552
                32.7519             -50.5780               3.2525
                 2.5553               3.2526             -67.1552

 A(FC)         -66.5227             -66.5227             -66.5227
 A(SD)          37.0530              -1.0757             -35.9773
 A(ORB+DIA)      0.0135              -0.0007               0.0290    A(PC) =   0.0139
 A(ORB)          0.0091               0.0003               0.0278    A(PC) =   0.0124
 A(DIA)          0.0044              -0.0011               0.0012    A(PC) =   0.0015
             ----------           ----------           ----------
 A(Tot)        -29.4562             -67.5991            -102.4709    A(iso)=  -66.5087
 Orientation: 
  X           0.5311445           -0.0476746            0.8459389
  Y           0.8403054           -0.0982142           -0.5331424
  Z           0.1085006            0.9940227           -0.0121047

Notes:  (1) The A matrix conforms to the "SAI" spin Hamiltonian convention.
        (2) Tensor is right-handed.

 -----------------------------------------------------------
 Nucleus   3H : A:ISTP=    1 I=  0.5 P=533.5514 MHz/au**3
                Q:ISTP=    2 I=  1.0 Q=  0.0029 barn     
 -----------------------------------------------------------
 Solving for nuclear perturbation:
Forming RHS of the CP-SCF equations         ... 
Calc. nucleus orbit integrals (SHARK)       ... done

------------------------------------------------------------------------------
                           ORCA CP-SCF CALCULATION
------------------------------------------------------------------------------

Input orbitals are from        ... /home/rwth0701/scratch/cs681498/orcajob__30556558-z5kD/18031.gbw
Input Perturbation             ... /home/rwth0701/scratch/cs681498/orcajob__30556558-z5kD/18031.pin.tmp
Wavefunction output            ... /home/rwth0701/scratch/cs681498/orcajob__30556558-z5kD/18031.pout.tmp
Perturbation mode              ... Imaginary perturbation
Solver                         ... POPLE
Max. number of iterations      ... 64
Convergence tolerance          ... 1.000e-03
Integral handling              ... Direct
DFT GridXC                     ... 1
COSX GridX                     ... 1
COSX IntAccX                   ... 3.067
COSX Algorithm                 ... Auto
Number of perturbations        ... 3
Number of operators            ... 2
Orbital ranges used for CP-SCF:
 Operator 0:  Orbitals   0...  4  to   5... 72
 Operator 1:  Orbitals   0...  3  to   4... 72
Variables per perturbation     ... 616
DFT calculation                         ... on
XC functional terms                     ... off
Hybrid DFT                              ... on
   Exchange mixing (SCF)                ...  0.200
   Exchange mixing (CP-SCF)             ...  0.200
   GGA exch. scaling(SCF)               ...  0.720
   GGA exch. scaling (CP-SCF)           ...  0.720
   GGA corr. scaling (SCF)              ...  0.810
   GGA corr. scaling (CP-SCF)           ...  0.810

CP-SCF GRID
-----------

General Integration Accuracy     IntAcc      ... 3.467
Radial Grid Type                 RadialGrid  ... OptM3 with GC (2021)
Angular Grid (max. ang.)         AngularGrid ... 1 (Lebedev-50)
Angular grid pruning method      GridPruning ... 4 (adaptive)
Weight generation scheme         WeightScheme... Becke
Basis function cutoff            BFCut       ... 1.0000e-10
Integration weight cutoff        WCut        ... 1.0000e-14
Angular grids for H and He will be reduced by one unit
Partially contracted basis set               ... off
Rotationally invariant grid construction     ... off

Total number of grid points                  ...     2333
Total number of batches                      ...       38
Average number of points per batch           ...       61
Average number of grid points per atom       ...      583

CP-SCF GRIDX
------------

General Integration Accuracy     IntAcc      ... 3.067
Radial Grid Type                 RadialGrid  ... OptM3 with GC (2021)
Angular Grid (max. ang.)         AngularGrid ... 1 (Lebedev-50)
Angular grid pruning method      GridPruning ... 4 (adaptive)
Weight generation scheme         WeightScheme... Becke
Basis function cutoff            BFCut       ... 1.0000e-10
Integration weight cutoff        WCut        ... 1.0000e-14
Angular grids for H and He will be reduced by one unit
Partially contracted basis set               ... on
Rotationally invariant grid construction     ... off

Total number of grid points                  ...     1069
Total number of batches                      ...       20
Average number of points per batch           ...       53
Average number of grid points per atom       ...      267

Memory available               ... 967.7 MB
Memory needed per perturbation ...   0.4 MB
Perturbations treated per batch... 3
Number of batches              ... 1
     CP-SCF ITERATION   0:   7.9806e-02 (   0.1 sec   0/  3 done)
     CP-SCF ITERATION   1:   2.8480e-03 (   0.1 sec   1/  3 done)
     CP-SCF ITERATION   2:   1.9484e-04 (   0.1 sec   3/  3 done)
                    *** THE CP-SCF HAS CONVERGED ***

Forming final perturbed densities           ... done
Transforming perturbed density to AO basis  ... done

 Raw HFC matrix (all values in MHz): 
 -----------------------------------
               -24.8362              -0.7730               1.0768
                -0.7723            -108.1157              -4.2416
                 1.0769              -4.2416             -61.4324

 A(FC)         -64.8091             -64.8091             -64.8091
 A(SD)          40.0036               3.7236             -43.7272
 A(ORB+DIA)      0.0107              -0.0006               0.0329    A(PC) =   0.0144
 A(ORB)          0.0051               0.0007               0.0313    A(PC) =   0.0124
 A(DIA)          0.0056              -0.0012               0.0016    A(PC) =   0.0020
             ----------           ----------           ----------
 A(Tot)        -24.7948             -61.0861            -108.5034    A(iso)=  -64.7948
 Orientation: 
  X           0.9994721            0.0314763            0.0080489
  Y          -0.0108318            0.0892670            0.9959488
  Z           0.0306303           -0.9955102            0.0895608

Notes:  (1) The A matrix conforms to the "SAI" spin Hamiltonian convention.
        (2) Tensor is right-handed.

 -----------------------------------------------------------
 Nucleus   0C : A:ISTP=   13 I=  0.5 P=134.1903 MHz/au**3
                Q:ISTP=   13 I=  0.5 Q=  0.0000 barn     
 -----------------------------------------------------------
 Solving for nuclear perturbation:
Forming RHS of the CP-SCF equations         ... 
Calc. nucleus orbit integrals (SHARK)       ... done

------------------------------------------------------------------------------
                           ORCA CP-SCF CALCULATION
------------------------------------------------------------------------------

Input orbitals are from        ... /home/rwth0701/scratch/cs681498/orcajob__30556558-z5kD/18031.gbw
Input Perturbation             ... /home/rwth0701/scratch/cs681498/orcajob__30556558-z5kD/18031.pin.tmp
Wavefunction output            ... /home/rwth0701/scratch/cs681498/orcajob__30556558-z5kD/18031.pout.tmp
Perturbation mode              ... Imaginary perturbation
Solver                         ... POPLE
Max. number of iterations      ... 64
Convergence tolerance          ... 1.000e-03
Integral handling              ... Direct
DFT GridXC                     ... 1
COSX GridX                     ... 1
COSX IntAccX                   ... 3.067
COSX Algorithm                 ... Auto
Number of perturbations        ... 3
Number of operators            ... 2
Orbital ranges used for CP-SCF:
 Operator 0:  Orbitals   0...  4  to   5... 72
 Operator 1:  Orbitals   0...  3  to   4... 72
Variables per perturbation     ... 616
DFT calculation                         ... on
XC functional terms                     ... off
Hybrid DFT                              ... on
   Exchange mixing (SCF)                ...  0.200
   Exchange mixing (CP-SCF)             ...  0.200
   GGA exch. scaling(SCF)               ...  0.720
   GGA exch. scaling (CP-SCF)           ...  0.720
   GGA corr. scaling (SCF)              ...  0.810
   GGA corr. scaling (CP-SCF)           ...  0.810

CP-SCF GRID
-----------

General Integration Accuracy     IntAcc      ... 3.467
Radial Grid Type                 RadialGrid  ... OptM3 with GC (2021)
Angular Grid (max. ang.)         AngularGrid ... 1 (Lebedev-50)
Angular grid pruning method      GridPruning ... 4 (adaptive)
Weight generation scheme         WeightScheme... Becke
Basis function cutoff            BFCut       ... 1.0000e-10
Integration weight cutoff        WCut        ... 1.0000e-14
Angular grids for H and He will be reduced by one unit
Partially contracted basis set               ... off
Rotationally invariant grid construction     ... off

Total number of grid points                  ...     2333
Total number of batches                      ...       38
Average number of points per batch           ...       61
Average number of grid points per atom       ...      583

CP-SCF GRIDX
------------

General Integration Accuracy     IntAcc      ... 3.067
Radial Grid Type                 RadialGrid  ... OptM3 with GC (2021)
Angular Grid (max. ang.)         AngularGrid ... 1 (Lebedev-50)
Angular grid pruning method      GridPruning ... 4 (adaptive)
Weight generation scheme         WeightScheme... Becke
Basis function cutoff            BFCut       ... 1.0000e-10
Integration weight cutoff        WCut        ... 1.0000e-14
Angular grids for H and He will be reduced by one unit
Partially contracted basis set               ... on
Rotationally invariant grid construction     ... off

Total number of grid points                  ...     1069
Total number of batches                      ...       20
Average number of points per batch           ...       53
Average number of grid points per atom       ...      267

Memory available               ... 967.6 MB
Memory needed per perturbation ...   0.4 MB
Perturbations treated per batch... 3
Number of batches              ... 1
     CP-SCF ITERATION   0:   1.1584e+00 (   0.1 sec   0/  3 done)
     CP-SCF ITERATION   1:   4.2147e-02 (   0.1 sec   0/  3 done)
     CP-SCF ITERATION   2:   3.1328e-03 (   0.1 sec   1/  3 done)
     CP-SCF ITERATION   3:   1.2729e-04 (   0.1 sec   3/  3 done)
                    *** THE CP-SCF HAS CONVERGED ***

Forming final perturbed densities           ... done
Transforming perturbed density to AO basis  ... done

 Raw HFC matrix (all values in MHz): 
 -----------------------------------
                 1.9566               1.1190             -10.1747
                 1.1190               4.5185             -21.3989
               -10.1747             -21.3989             241.3263

 A(FC)          82.7170              82.7170              82.7170
 A(SD)         -81.0577             -79.9156             160.9733
 A(ORB+DIA)     -0.1740              -0.1630              -0.0125    A(PC) =  -0.1165
 A(ORB)         -0.1744              -0.1634              -0.0124    A(PC) =  -0.1167
 A(DIA)          0.0004               0.0004              -0.0001    A(PC) =   0.0002
             ----------           ----------           ----------
 A(Tot)          1.4853               2.6384             243.6778    A(iso)=   82.6005
 Orientation: 
  X           0.9824952            0.1814216           -0.0422999
  Y          -0.1845737            0.9787592           -0.0892360
  Z           0.0252121            0.0954814            0.9951119

Notes:  (1) The A matrix conforms to the "SAI" spin Hamiltonian convention.
        (2) Tensor is right-handed.


--------------------------------------------------------------------------------
----------------------------------------------------------------------------
                           ORCA EULER ANGLE PROGRAM
----------------------------------------------------------------------------

Only g-tensor available        -->  using g-tensor as reference tensor

Reference tensor               ...  g

g-tensor ordering              ...  |g_min> --> |gx>
                                    |g_mid> --> |gy>
                                    |g_max> --> |gz>

A- and EFG-tensor ordering     ...  the axes |Ax>, |Qx>, |Ay>, etc. are assigned
                                    such that the Euler rotation is minimal. You
                                    can find the respective eigenvalues as Ax,
                                    EFGx, Ay, etc. in the tables below.
                                    The relation of |Ax>, |Ay>,  etc. to Amin, Amid, etc.
                                    (as printed in the ORCA EPR/NMR CALCULATION Output)
                                    is obtained in the detailed printout.

Euler rotation around          ...  z - y - z
   First rotation              -->  by alpha around z
   Second rotation             -->  by beta around y'
   Third rotation              -->  by gamma around z''
   Positive / Negative angle   -->  clockwise / counterclockwise rotation

Plot EFG-tensors                    (-)
Plot HFC-tensors                    (-)
Detailed Printout                   (-)

-------------------------------------------------------------------------
          Euler rotation of hyperfine tensor to g-tensor
-------------------------------------------------------------------------

-------------------------------------------------------------------
 Atom  |   Alpha    Beta    Gamma   |   Ax       Ay       Az 
       |          [degrees]         |           [MHz]         
-------------------------------------------------------------------
  1H      -92.8     24.3     92.0     -64.87   -27.17  -104.22
  2H     -169.0      0.3    169.1     -67.60  -102.47   -29.46
  3H       92.3     31.6    -91.4     -61.09   -24.79  -108.50
  0C       92.4     21.6    -92.2     243.68     1.49     2.64
-------------------------------------------------------------------


Maximum memory used throughout the entire EPRNMR-calculation: 67.6 MB

Timings for individual modules:

Sum of individual times         ...       19.345 sec (=   0.322 min)
GTO integral calculation        ...        2.725 sec (=   0.045 min)  14.1 %
Spin-Orbit-Coupling Matrices    ...        2.359 sec (=   0.039 min)  12.2 %
SCF iterations                  ...        7.751 sec (=   0.129 min)  40.1 %
EPR/NMR calculation             ...        6.511 sec (=   0.109 min)  33.7 %
                             ****ORCA TERMINATED NORMALLY****
TOTAL RUN TIME: 0 days 0 hours 0 minutes 21 seconds 776 msec
