Job execution start: Mon Oct 24 17:41:01 CEST 2022
Shared library path: /home/cs681498/orca:/opt/MPI/openmpi-4.1.1/linux/gcc_4.8.5/lib:/opt/MPI/openmpi-4.1.1/linux/gcc_4.8.5/lib/lib32
Slurm Job ID is: 30556148
Slurm Job name is: 2686
ncm0837

                                 *****************
                                 * O   R   C   A *
                                 *****************

                                            #,                                       
                                            ###                                      
                                            ####                                     
                                            #####                                    
                                            ######                                   
                                           ########,                                 
                                     ,,################,,,,,                         
                               ,,#################################,,                 
                          ,,##########################################,,             
                       ,#########################################, ''#####,          
                    ,#############################################,,   '####,        
                  ,##################################################,,,,####,       
                ,###########''''           ''''###############################       
              ,#####''   ,,,,##########,,,,          '''####'''          '####       
            ,##' ,,,,###########################,,,                        '##       
           ' ,,###''''                  '''############,,,                           
         ,,##''                                '''############,,,,        ,,,,,,###''
      ,#''                                            '''#######################'''  
     '                                                          ''''####''''         
             ,#######,   #######,   ,#######,      ##                                
            ,#'     '#,  ##    ##  ,#'     '#,    #''#        ######   ,####,        
            ##       ##  ##   ,#'  ##            #'  '#       #        #'  '#        
            ##       ##  #######   ##           ,######,      #####,   #    #        
            '#,     ,#'  ##    ##  '#,     ,#' ,#      #,         ##   #,  ,#        
             '#######'   ##     ##  '#######'  #'      '#     #####' # '####'        



                  #######################################################
                  #                        -***-                        #
                  #          Department of theory and spectroscopy      #
                  #    Directorship and core code : Frank Neese         #
                  #        Max Planck Institute fuer Kohlenforschung    #
                  #                Kaiser Wilhelm Platz 1               #
                  #                 D-45470 Muelheim/Ruhr               #
                  #                      Germany                        #
                  #                                                     #
                  #                  All rights reserved                #
                  #                        -***-                        #
                  #######################################################


                         Program Version 5.0.3 -  RELEASE  -


 With contributions from (in alphabetic order):
   Daniel Aravena         : Magnetic Suceptibility
   Michael Atanasov       : Ab Initio Ligand Field Theory (pilot matlab implementation)
   Alexander A. Auer      : GIAO ZORA, VPT2 properties, NMR spectrum
   Ute Becker             : Parallelization
   Giovanni Bistoni       : ED, misc. LED, open-shell LED, HFLD
   Martin Brehm           : Molecular dynamics
   Dmytro Bykov           : SCF Hessian
   Vijay G. Chilkuri      : MRCI spin determinant printing, contributions to CSF-ICE
   Dipayan Datta          : RHF DLPNO-CCSD density
   Achintya Kumar Dutta   : EOM-CC, STEOM-CC
   Dmitry Ganyushin       : Spin-Orbit,Spin-Spin,Magnetic field MRCI
   Miquel Garcia          : C-PCM and meta-GGA Hessian, CC/C-PCM, Gaussian charge scheme
   Yang Guo               : DLPNO-NEVPT2, F12-NEVPT2, CIM, IAO-localization
   Andreas Hansen         : Spin unrestricted coupled pair/coupled cluster methods
   Benjamin Helmich-Paris : MC-RPA, TRAH-SCF, COSX integrals
   Lee Huntington         : MR-EOM, pCC
   Robert Izsak           : Overlap fitted RIJCOSX, COSX-SCS-MP3, EOM
   Marcus Kettner         : VPT2
   Christian Kollmar      : KDIIS, OOCD, Brueckner-CCSD(T), CCSD density, CASPT2, CASPT2-K
   Simone Kossmann        : Meta GGA functionals, TD-DFT gradient, OOMP2, MP2 Hessian
   Martin Krupicka        : Initial AUTO-CI
   Lucas Lang             : DCDCAS
   Marvin Lechner         : AUTO-CI (C++ implementation), FIC-MRCC
   Dagmar Lenk            : GEPOL surface, SMD
   Dimitrios Liakos       : Extrapolation schemes; Compound Job, initial MDCI parallelization
   Dimitrios Manganas     : Further ROCIS development; embedding schemes
   Dimitrios Pantazis     : SARC Basis sets
   Anastasios Papadopoulos: AUTO-CI, single reference methods and gradients
   Taras Petrenko         : DFT Hessian,TD-DFT gradient, ASA, ECA, R-Raman, ABS, FL, XAS/XES, NRVS
   Peter Pinski           : DLPNO-MP2, DLPNO-MP2 Gradient
   Christoph Reimann      : Effective Core Potentials
   Marius Retegan         : Local ZFS, SOC
   Christoph Riplinger    : Optimizer, TS searches, QM/MM, DLPNO-CCSD(T), (RO)-DLPNO pert. Triples
   Tobias Risthaus        : Range-separated hybrids, TD-DFT gradient, RPA, STAB
   Michael Roemelt        : Original ROCIS implementation
   Masaaki Saitow         : Open-shell DLPNO-CCSD energy and density
   Barbara Sandhoefer     : DKH picture change effects
   Avijit Sen             : IP-ROCIS
   Kantharuban Sivalingam : CASSCF convergence, NEVPT2, FIC-MRCI
   Bernardo de Souza      : ESD, SOC TD-DFT
   Georgi Stoychev        : AutoAux, RI-MP2 NMR, DLPNO-MP2 response
   Willem Van den Heuvel  : Paramagnetic NMR
   Boris Wezisla          : Elementary symmetry handling
   Frank Wennmohs         : Technical directorship


 We gratefully acknowledge several colleagues who have allowed us to
 interface, adapt or use parts of their codes:
   Stefan Grimme, W. Hujo, H. Kruse, P. Pracht,  : VdW corrections, initial TS optimization,
                  C. Bannwarth, S. Ehlert          DFT functionals, gCP, sTDA/sTD-DF
   Ed Valeev, F. Pavosevic, A. Kumar             : LibInt (2-el integral package), F12 methods
   Garnet Chan, S. Sharma, J. Yang, R. Olivares  : DMRG
   Ulf Ekstrom                                   : XCFun DFT Library
   Mihaly Kallay                                 : mrcc  (arbitrary order and MRCC methods)
   Jiri Pittner, Ondrej Demel                    : Mk-CCSD
   Frank Weinhold                                : gennbo (NPA and NBO analysis)
   Christopher J. Cramer and Donald G. Truhlar   : smd solvation model
   Lars Goerigk                                  : TD-DFT with DH, B97 family of functionals
   V. Asgeirsson, H. Jonsson                     : NEB implementation
   FAccTs GmbH                                   : IRC, NEB, NEB-TS, DLPNO-Multilevel, CI-OPT
                                                   MM, QMMM, 2- and 3-layer-ONIOM, Crystal-QMMM,
                                                   LR-CPCM, SF, NACMEs, symmetry and pop. for TD-DFT,
                                                   nearIR, NL-DFT gradient (VV10), updates on ESD,
                                                   ML-optimized integration grids
   S Lehtola, MJT Oliveira, MAL Marques          : LibXC Library
   Liviu Ungur et al                             : ANISO software


 Your calculation uses the libint2 library for the computation of 2-el integrals
 For citations please refer to: http://libint.valeyev.net

 Your ORCA version has been built with support for libXC version: 5.1.0
 For citations please refer to: https://tddft.org/programs/libxc/

 This ORCA versions uses:
   CBLAS   interface :  Fast vector & matrix operations
   LAPACKE interface :  Fast linear algebra routines
   SCALAPACK package :  Parallel linear algebra routines
   Shared memory     :  Shared parallel matrices
   BLAS/LAPACK       :  OpenBLAS 0.3.15  USE64BITINT DYNAMIC_ARCH NO_AFFINITY SkylakeX SINGLE_THREADED
        Core in use  :  SkylakeX
   Copyright (c) 2011-2014, The OpenBLAS Project


================================================================================

----- Orbital basis set information -----
Your calculation utilizes the basis: EPR-III
   V. Barone, in Recent Advances in Density Functional Methods, Part 1 (ed. D. P. Chong), World Scientific, Singapore, 1995, p. 287.
   N. Rega, M. Cossi and V. Barone, J. Chem. Phys. 105, 11060 (1996).

----- AuxJ basis set information -----
Your calculation utilizes the AutoAux generation procedure.
  G. L. Stoychev, A. A. Auer, F. Neese, J. Chem. Theory Comput. 13, 554 (2017)

----- AuxC basis set information -----
Your calculation utilizes the AutoAux generation procedure.
  G. L. Stoychev, A. A. Auer, F. Neese, J. Chem. Theory Comput. 13, 554 (2017)

----- AuxJK basis set information -----
Your calculation utilizes the AutoAux generation procedure.
  G. L. Stoychev, A. A. Auer, F. Neese, J. Chem. Theory Comput. 13, 554 (2017)

================================================================================
                                        WARNINGS
                       Please study these warnings very carefully!
================================================================================


WARNING: your system is open-shell and RHF/RKS was chosen
  ===> : WILL SWITCH to UHF/UKS


INFO   : the flag for use of the SHARK integral package has been found!

================================================================================
                                       INPUT FILE
================================================================================
NAME = /home/rwth0701/scratch/cs681498/orcajob__30556148-WP2x/2686.inp
|  1> !B3LYP EPR-III Autoaux
|  2> !PAL4
|  3> 
|  4> * xyz 0 2
|  5>  C      3.0378539871    -11.4296459499     -9.5967829058
|  6>  H      2.6625343556    -12.4388790953     -9.8907138692
|  7>  H      3.5997606248    -10.9358626191    -10.3575707235
|  8>  H      2.7864195577    -10.9175505473     -8.6724306025
|  9> *
| 10> 
| 11> %EPRNMR
| 12>         GTENSOR   TRUE
| 13>         NUCLEI    = ALL H {AISO, ADIP, AORB}
| 14>         NUCLEI    = ALL C {AISO, ADIP, AORB}
| 15> END
| 16> 
| 17> 
| 18>                          ****END OF INPUT****
================================================================================

                       ****************************
                       * Single Point Calculation *
                       ****************************

---------------------------------
CARTESIAN COORDINATES (ANGSTROEM)
---------------------------------
  C      3.037854  -11.429646   -9.596783
  H      2.662534  -12.438879   -9.890714
  H      3.599761  -10.935863  -10.357571
  H      2.786420  -10.917551   -8.672431

----------------------------
CARTESIAN COORDINATES (A.U.)
----------------------------
  NO LB      ZA    FRAG     MASS         X           Y           Z
   0 C     6.0000    0    12.011    5.740712  -21.598901  -18.135291
   1 H     1.0000    0     1.008    5.031461  -23.506075  -18.690740
   2 H     1.0000    0     1.008    6.802562  -20.665785  -19.572972
   3 H     1.0000    0     1.008    5.265570  -20.631181  -16.388519

--------------------------------
INTERNAL COORDINATES (ANGSTROEM)
--------------------------------
 C      0   0   0     0.000000000000     0.00000000     0.00000000
 H      1   0   0     1.116159387726     0.00000000     0.00000000
 H      1   2   0     1.066939150480   114.06562993     0.00000000
 H      1   2   3     1.086226566729   124.92768297   173.62875716

---------------------------
INTERNAL COORDINATES (A.U.)
---------------------------
 C      0   0   0     0.000000000000     0.00000000     0.00000000
 H      1   0   0     2.109235564607     0.00000000     0.00000000
 H      1   2   0     2.016222795967   114.06562993     0.00000000
 H      1   2   3     2.052670730507   124.92768297   173.62875716

---------------------
BASIS SET INFORMATION
---------------------
There are 2 groups of distinct atoms

 Group   1 Type C   : 12s8p2d1f contracted to 8s5p2d1f pattern {51111111/41111/11/1}
 Group   2 Type H   : 7s2p contracted to 5s2p pattern {31111/11}

Atom   0C    basis set group =>   1
Atom   1H    basis set group =>   2
Atom   2H    basis set group =>   2
Atom   3H    basis set group =>   2
---------------------------------
AUXILIARY/J BASIS SET INFORMATION
---------------------------------
There are 2 groups of distinct atoms

 Group   1 Type C   : 20s17p16d8f3g contracted to 20s17p16d8f3g pattern {11111111111111111111/11111111111111111/1111111111111111/11111111/111}
 Group   2 Type H   : 17s7p3d contracted to 17s7p3d pattern {11111111111111111/1111111/111}

Atom   0C    basis set group =>   1
Atom   1H    basis set group =>   2
Atom   2H    basis set group =>   2
Atom   3H    basis set group =>   2
---------------------------------
AUXILIARY/C BASIS SET INFORMATION
---------------------------------
There are 2 groups of distinct atoms

 Group   1 Type C   : 20s17p16d8f3g contracted to 20s17p16d8f3g pattern {11111111111111111111/11111111111111111/1111111111111111/11111111/111}
 Group   2 Type H   : 17s7p3d contracted to 17s7p3d pattern {11111111111111111/1111111/111}

Atom   0C    basis set group =>   1
Atom   1H    basis set group =>   2
Atom   2H    basis set group =>   2
Atom   3H    basis set group =>   2
----------------------------------
AUXILIARY/JK BASIS SET INFORMATION
----------------------------------
There are 2 groups of distinct atoms

 Group   1 Type C   : 20s17p16d8f3g contracted to 20s17p16d8f3g pattern {11111111111111111111/11111111111111111/1111111111111111/11111111/111}
 Group   2 Type H   : 17s7p3d contracted to 17s7p3d pattern {11111111111111111/1111111/111}

Atom   0C    basis set group =>   1
Atom   1H    basis set group =>   2
Atom   2H    basis set group =>   2
Atom   3H    basis set group =>   2


           ************************************************************
           *        Program running with 4 parallel MPI-processes     *
           *              working on a common directory               *
           ************************************************************
------------------------------------------------------------------------------
                           ORCA GTO INTEGRAL CALCULATION
                           -- RI-GTO INTEGRALS CHOSEN --
------------------------------------------------------------------------------
------------------------------------------------------------------------------
                   ___                                                        
                  /   \      - P O W E R E D   B Y -                         
                 /     \                                                     
                 |  |  |   _    _      __       _____    __    __             
                 |  |  |  | |  | |    /  \     |  _  \  |  |  /  |          
                  \  \/   | |  | |   /    \    | | | |  |  | /  /          
                 / \  \   | |__| |  /  /\  \   | |_| |  |  |/  /          
                |  |  |   |  __  | /  /__\  \  |    /   |      \           
                |  |  |   | |  | | |   __   |  |    \   |  |\   \          
                \     /   | |  | | |  |  |  |  | |\  \  |  | \   \       
                 \___/    |_|  |_| |__|  |__|  |_| \__\ |__|  \__/        
                                                                              
                      - O R C A' S   B I G   F R I E N D -                    
                                      &                                       
                       - I N T E G R A L  F E E D E R -                       
                                                                              
 v1 FN, 2020, v2 2021                                                         
------------------------------------------------------------------------------


Reading SHARK input file /home/rwth0701/scratch/cs681498/orcajob__30556148-WP2x/2686.SHARKINP.tmp ... ok
----------------------
SHARK INTEGRAL PACKAGE
----------------------

Number of atoms                             ...      4
Number of basis functions                   ...     73
Number of shells                            ...     37
Maximum angular momentum                    ...      3
Integral batch strategy                     ... SHARK/LIBINT Hybrid
RI-J (if used) integral strategy            ... SPLIT-RIJ (Revised 2003 algorithm where possible)
Printlevel                                  ...      1
Contraction scheme used                     ... SEGMENTED contraction
Coulomb Range Separation                    ... NOT USED
Exchange Range Separation                   ... NOT USED
Finite Nucleus Model                        ... NOT USED
Auxiliary Coulomb fitting basis             ... AVAILABLE
   # of basis functions in Aux-J            ...    393
   # of shells in Aux-J                     ...    145
   Maximum angular momentum in Aux-J        ...      4
Auxiliary J/K fitting basis                 ... AVAILABLE
   # of basis functions in Aux-JK           ...    393
   # of shells in Aux-JK                    ...    145
   Maximum angular momentum in Aux-JK       ...      4
Auxiliary Correlation fitting basis         ... AVAILABLE
   # of basis functions in Aux-C            ...    393
   # of shells in Aux-C                     ...    145
   Maximum angular momentum in Aux-C        ...      4
Auxiliary 'external' fitting basis          ... NOT available
Integral threshold                          ...     1.000000e-10
Primitive cut-off                           ...     1.000000e-11
Primitive pair pre-selection threshold      ...     1.000000e-11

Calculating pre-screening integrals         ... done (  0.0 sec) Dimension = 37
Organizing shell pair data                  ... done (  0.0 sec)
Shell pair information
Total number of shell pairs                 ...       703
Shell pairs after pre-screening             ...       688
Total number of primitive shell pairs       ...      1300
Primitive shell pairs kept                  ...      1183
          la=0 lb=0:    261 shell pairs
          la=1 lb=0:    253 shell pairs
          la=1 lb=1:     66 shell pairs
          la=2 lb=0:     46 shell pairs
          la=2 lb=1:     22 shell pairs
          la=2 lb=2:      3 shell pairs
          la=3 lb=0:     23 shell pairs
          la=3 lb=1:     11 shell pairs
          la=3 lb=2:      2 shell pairs
          la=3 lb=3:      1 shell pairs

Calculating one electron integrals          ... done (  0.0 sec)
Calculating RI/J V-Matrix + Cholesky decomp.... done (  0.3 sec)
Calculating RI/JK V-Matrix + Cholesky decomp... done (  0.2 sec)
Calculating RI/C V-Matrix + Cholesky decomp.... done (  0.1 sec)
Calculating Nuclear repulsion               ... done (  0.0 sec) ENN=      9.586160277768 Eh

SHARK setup successfully completed in   1.3 seconds

Maximum memory used throughout the entire GTOINT-calculation: 13.7 MB


           ************************************************************
           *        Program running with 4 parallel MPI-processes     *
           *              working on a common directory               *
           ************************************************************
-------------------------------------------------------------------------------
                                 ORCA SCF
-------------------------------------------------------------------------------

------------
SCF SETTINGS
------------
Hamiltonian:
 Density Functional     Method          .... DFT(GTOs)
 Exchange Functional    Exchange        .... B88
   X-Alpha parameter    XAlpha          ....  0.666667
   Becke's b parameter  XBeta           ....  0.004200
 Correlation Functional Correlation     .... LYP
 LDA part of GGA corr.  LDAOpt          .... VWN-5
 Gradients option       PostSCFGGA      .... off
 Hybrid DFT is turned on
   Fraction HF Exchange ScalHFX         ....  0.200000
   Scaling of DF-GGA-X  ScalDFX         ....  0.720000
   Scaling of DF-GGA-C  ScalDFC         ....  0.810000
   Scaling of DF-LDA-C  ScalLDAC        ....  1.000000
   Perturbative correction              ....  0.000000
   Density functional embedding theory  .... OFF
   NL short-range parameter             ....  4.800000
 RI-approximation to the Coulomb term is turned on
   Number of AuxJ basis functions       .... 393
   RIJ-COSX (HFX calculated with COS-X)).... on


General Settings:
 Integral files         IntName         .... /home/rwth0701/scratch/cs681498/orcajob__30556148-WP2x/2686
 Hartree-Fock type      HFTyp           .... UHF
 Total Charge           Charge          ....    0
 Multiplicity           Mult            ....    2
 Number of Electrons    NEL             ....    9
 Basis Dimension        Dim             ....   73
 Nuclear Repulsion      ENuc            ....      9.5861602778 Eh

Convergence Acceleration:
 DIIS                   CNVDIIS         .... on
   Start iteration      DIISMaxIt       ....    12
   Startup error        DIISStart       ....  0.200000
   # of expansion vecs  DIISMaxEq       ....     5
   Bias factor          DIISBfac        ....   1.050
   Max. coefficient     DIISMaxC        ....  10.000
 Trust-Rad. Augm. Hess. CNVTRAH         .... auto
   Auto Start mean grad. ratio tolernc. ....  1.125000
   Auto Start start iteration           ....    20
   Auto Start num. interpolation iter.  ....    10
   Max. Number of Micro iterations      ....    16
   Max. Number of Macro iterations      .... Maxiter - #DIIS iter
   Number of Davidson start vectors     ....     2
   Converg. threshold I  (grad. norm)   ....   5.000e-05
   Converg. threshold II (energy diff.) ....   1.000e-06
   Grad. Scal. Fac. for Micro threshold ....   0.100
   Minimum threshold for Micro iter.    ....   0.010
   NR start threshold (gradient norm)   ....   0.001
   Initial trust radius                 ....   0.400
   Minimum AH scaling param. (alpha)    ....   1.000
   Maximum AH scaling param. (alpha)    .... 1000.000
   Orbital update algorithm             .... Taylor
   White noise on init. David. guess    .... on
   Maximum white noise                  ....   0.010
   Quad. conv. algorithm                .... NR
 SOSCF                  CNVSOSCF        .... off
 Level Shifting         CNVShift        .... on
   Level shift para.    LevelShift      ....    0.2500
   Turn off err/grad.   ShiftErr        ....    0.0010
 Zerner damping         CNVZerner       .... off
 Static damping         CNVDamp         .... on
   Fraction old density DampFac         ....    0.7000
   Max. Damping (<1)    DampMax         ....    0.9800
   Min. Damping (>=0)   DampMin         ....    0.0000
   Turn off err/grad.   DampErr         ....    0.1000
 Fernandez-Rico         CNVRico         .... off

SCF Procedure:
 Maximum # iterations   MaxIter         ....   125
 SCF integral mode      SCFMode         .... Direct
   Integral package                     .... SHARK and LIBINT hybrid scheme
 Reset frequency        DirectResetFreq ....    20
 Integral Threshold     Thresh          ....  1.000e-10 Eh
 Primitive CutOff       TCut            ....  1.000e-11 Eh

Convergence Tolerance:
 Convergence Check Mode ConvCheckMode   .... Total+1el-Energy
 Convergence forced     ConvForced      .... 0
 Energy Change          TolE            ....  1.000e-06 Eh
 1-El. energy change                    ....  1.000e-03 Eh
 DIIS Error             TolErr          ....  1.000e-06


Diagonalization of the overlap matrix:
Smallest eigenvalue                        ... 1.633e-03
Time for diagonalization                   ...    0.002 sec
Threshold for overlap eigenvalues          ... 1.000e-08
Number of eigenvalues below threshold      ... 0
Time for construction of square roots      ...    0.010 sec
Total time needed                          ...    0.012 sec

Time for model grid setup =    0.089 sec

------------------------------
INITIAL GUESS: MODEL POTENTIAL
------------------------------
Loading Hartree-Fock densities                     ... done
Calculating cut-offs                               ... done
Initializing the effective Hamiltonian             ... done
Setting up the integral package (SHARK)            ... done
Starting the Coulomb interaction                   ... done (   0.0 sec)
Reading the grid                                   ... done
Mapping shells                                     ... done
Starting the XC term evaluation                    ... done (   0.0 sec)
  promolecular density results
     # of electrons  =      8.998126823
     EX              =     -5.966187947
     EC              =     -0.260020763
     EX+EC           =     -6.226208711
Transforming the Hamiltonian                       ... done (   0.0 sec)
Diagonalizing the Hamiltonian                      ... done (   0.0 sec)
Back transforming the eigenvectors                 ... done (   0.0 sec)
Now organizing SCF variables                       ... done
                      ------------------
                      INITIAL GUESS DONE (   0.1 sec)
                      ------------------
-------------------
DFT GRID GENERATION
-------------------

General Integration Accuracy     IntAcc      ... 4.388
Radial Grid Type                 RadialGrid  ... OptM3 with GC (2021)
Angular Grid (max. ang.)         AngularGrid ... 4 (Lebedev-302)
Angular grid pruning method      GridPruning ... 4 (adaptive)
Weight generation scheme         WeightScheme... Becke
Basis function cutoff            BFCut       ... 1.0000e-10
Integration weight cutoff        WCut        ... 1.0000e-14
Angular grids for H and He will be reduced by one unit
Partially contracted basis set               ... off
Rotationally invariant grid construction     ... off

Total number of grid points                  ...    17058
Total number of batches                      ...      268
Average number of points per batch           ...       63
Average number of grid points per atom       ...     4264
Time for grid setup =    0.271 sec

--------------------
COSX GRID GENERATION
--------------------

GRIDX 1
-------
General Integration Accuracy     IntAcc      ... 3.816
Radial Grid Type                 RadialGrid  ... OptM3 with GC (2021)
Angular Grid (max. ang.)         AngularGrid ... 1 (Lebedev-50)
Angular grid pruning method      GridPruning ... 4 (adaptive)
Weight generation scheme         WeightScheme... Becke
Basis function cutoff            BFCut       ... 1.0000e-10
Integration weight cutoff        WCut        ... 1.0000e-14
Angular grids for H and He will be reduced by one unit
Partially contracted basis set               ... on
Rotationally invariant grid construction     ... off

Total number of grid points                  ...     2148
Total number of batches                      ...       35
Average number of points per batch           ...       61
Average number of grid points per atom       ...      537
UseSFitting                                  ... on

GRIDX 2
-------
General Integration Accuracy     IntAcc      ... 4.020
Radial Grid Type                 RadialGrid  ... OptM3 with GC (2021)
Angular Grid (max. ang.)         AngularGrid ... 2 (Lebedev-110)
Angular grid pruning method      GridPruning ... 4 (adaptive)
Weight generation scheme         WeightScheme... Becke
Basis function cutoff            BFCut       ... 1.0000e-10
Integration weight cutoff        WCut        ... 1.0000e-14
Angular grids for H and He will be reduced by one unit
Partially contracted basis set               ... on
Rotationally invariant grid construction     ... off

Total number of grid points                  ...     5071
Total number of batches                      ...       82
Average number of points per batch           ...       61
Average number of grid points per atom       ...     1268
UseSFitting                                  ... on

GRIDX 3
-------
General Integration Accuracy     IntAcc      ... 4.338
Radial Grid Type                 RadialGrid  ... OptM3 with GC (2021)
Angular Grid (max. ang.)         AngularGrid ... 3 (Lebedev-194)
Angular grid pruning method      GridPruning ... 4 (adaptive)
Weight generation scheme         WeightScheme... Becke
Basis function cutoff            BFCut       ... 1.0000e-10
Integration weight cutoff        WCut        ... 1.0000e-14
Angular grids for H and He will be reduced by one unit
Partially contracted basis set               ... on
Rotationally invariant grid construction     ... off

Total number of grid points                  ...    11738
Total number of batches                      ...      185
Average number of points per batch           ...       63
Average number of grid points per atom       ...     2934
UseSFitting                                  ... on

Time for X-Grid setup             =    0.476 sec

--------------
SCF ITERATIONS
--------------
ITER       Energy         Delta-E        Max-DP      RMS-DP      [F,P]     Damp
               ***  Starting incremental Fock matrix formation  ***
  0    -39.7861416990   0.000000000000 0.01499608  0.00049003  0.0864383 0.7000
  1    -39.8043783273  -0.018236628327 0.00937938  0.00036590  0.0436717 0.7000
                               ***Turning on DIIS***
  2    -39.8124488366  -0.008070509328 0.01613341  0.00063979  0.0176212 0.0000
  3    -39.8234915980  -0.011042761340 0.00672278  0.00027477  0.0262812 0.0000
  4    -39.8268649552  -0.003373357275 0.00255698  0.00007641  0.0051129 0.0000
  5    -39.8270021920  -0.000137236807 0.00089472  0.00003200  0.0015679 0.0000
  6    -39.8270197219  -0.000017529880 0.00061235  0.00002488  0.0006178 0.0000
               *** Restarting incremental Fock matrix formation ***
                                   *** Resetting DIIS ***
  7    -39.8270260589  -0.000006336983 0.00009044  0.00000283  0.0000807 0.0000
                 **** Energy Check signals convergence ****

               *****************************************************
               *                     SUCCESS                       *
               *           SCF CONVERGED AFTER   8 CYCLES          *
               *****************************************************

Old exchange energy                            =     -1.239059634 Eh
New exchange energy                            =     -1.239058421 Eh
Exchange energy change after final integration =      0.000001213 Eh
Total energy after final integration           =    -39.827024917 Eh
Final COS-X integration done in                =     0.185 sec

----------------
TOTAL SCF ENERGY
----------------

Total Energy       :          -39.82702492 Eh           -1083.74844 eV

Components:
Nuclear Repulsion  :            9.58616028 Eh             260.85268 eV
Electronic Energy  :          -49.41318520 Eh           -1344.60113 eV
One Electron Energy:          -71.48904213 Eh           -1945.31573 eV
Two Electron Energy:           22.07585694 Eh             600.71461 eV
Max COSX asymmetry :            0.00000004 Eh               0.00000 eV

Virial components:
Potential Energy   :          -79.41129852 Eh           -2160.89129 eV
Kinetic Energy     :           39.58427361 Eh            1077.14285 eV
Virial Ratio       :            2.00613252


DFT components:
N(Alpha)           :        4.999998706665 electrons
N(Beta)            :        3.999999994443 electrons
N(Total)           :        8.999998701108 electrons
E(X)               :       -4.904761865387 Eh       
E(C)               :       -0.309187006911 Eh       
E(XC)              :       -5.213948872298 Eh       
DFET-embed. en.    :        0.000000000000 Eh       

---------------
SCF CONVERGENCE
---------------

  Last Energy change         ...   -7.1817e-08  Tolerance :   1.0000e-06
  Last MAX-Density change    ...    0.0000e+00  Tolerance :   1.0000e-05
  Last RMS-Density change    ...    0.0000e+00  Tolerance :   1.0000e-06
  Last DIIS Error            ...    5.7555e-05  Tolerance :   1.0000e-06

             **** THE GBW FILE WAS UPDATED (/home/rwth0701/scratch/cs681498/orcajob__30556148-WP2x/2686.gbw) ****
             **** DENSITY /home/rwth0701/scratch/cs681498/orcajob__30556148-WP2x/2686.scfp WAS UPDATED ****
             **** ENERGY FILE WAS UPDATED (/home/rwth0701/scratch/cs681498/orcajob__30556148-WP2x/2686.en.tmp) ****
----------------------
UHF SPIN CONTAMINATION
----------------------

Warning: in a DFT calculation there is little theoretical justification to 
         calculate <S**2> as in Hartree-Fock theory. We will do it anyways
         but you should keep in mind that the values have only limited relevance

Expectation value of <S**2>     :     0.753716
Ideal value S*(S+1) for S=0.5   :     0.750000
Deviation                       :     0.003716

             **** THE GBW FILE WAS UPDATED (/home/rwth0701/scratch/cs681498/orcajob__30556148-WP2x/2686.gbw) ****
             **** DENSITY /home/rwth0701/scratch/cs681498/orcajob__30556148-WP2x/2686.scfp WAS UPDATED ****
----------------
ORBITAL ENERGIES
----------------
                 SPIN UP ORBITALS
  NO   OCC          E(Eh)            E(eV) 
   0   1.0000     -10.187063      -277.2041 
   1   1.0000      -0.685293       -18.6478 
   2   1.0000      -0.429167       -11.6782 
   3   1.0000      -0.411827       -11.2064 
   4   1.0000      -0.235014        -6.3951 
   5   0.0000       0.000633         0.0172 
   6   0.0000       0.035732         0.9723 
   7   0.0000       0.037753         1.0273 
   8   0.0000       0.047444         1.2910 
   9   0.0000       0.085479         2.3260 
  10   0.0000       0.091986         2.5031 
  11   0.0000       0.096396         2.6231 
  12   0.0000       0.221040         6.0148 
  13   0.0000       0.225299         6.1307 
  14   0.0000       0.247083         6.7235 
  15   0.0000       0.276159         7.5147 
  16   0.0000       0.297081         8.0840 
  17   0.0000       0.311948         8.4885 
  18   0.0000       0.340138         9.2556 
  19   0.0000       0.550382        14.9766 
  20   0.0000       0.564009        15.3475 
  21   0.0000       0.739799        20.1310 
  22   0.0000       0.746536        20.3143 
  23   0.0000       0.768431        20.9101 
  24   0.0000       0.827542        22.5186 
  25   0.0000       0.879300        23.9270 
  26   0.0000       0.896607        24.3979 
  27   0.0000       0.936678        25.4883 
  28   0.0000       0.962188        26.1825 
  29   0.0000       1.059412        28.8281 
  30   0.0000       1.068597        29.0780 
  31   0.0000       1.102454        29.9993 
  32   0.0000       1.167256        31.7627 
  33   0.0000       1.169389        31.8207 
  34   0.0000       1.461146        39.7598 
  35   0.0000       1.465741        39.8848 
  36   0.0000       1.498681        40.7812 
  37   0.0000       1.706411        46.4338 
  38   0.0000       1.727559        47.0093 
  39   0.0000       1.739964        47.3468 
  40   0.0000       2.720580        74.0307 
  41   0.0000       2.731675        74.3327 
  42   0.0000       2.884362        78.4875 
  43   0.0000       2.894352        78.7593 
  44   0.0000       2.937108        79.9228 
  45   0.0000       2.958475        80.5042 
  46   0.0000       2.985268        81.2333 
  47   0.0000       3.155394        85.8626 
  48   0.0000       3.170203        86.2656 
  49   0.0000       3.247497        88.3689 
  50   0.0000       3.255224        88.5791 
  51   0.0000       3.711972       101.0079 
  52   0.0000       3.733660       101.5981 
  53   0.0000       3.794489       103.2533 
  54   0.0000       3.911165       106.4282 
  55   0.0000       3.956394       107.6590 
  56   0.0000       4.043032       110.0165 
  57   0.0000       4.122572       112.1809 
  58   0.0000       4.130654       112.4008 
  59   0.0000       4.131788       112.4317 
  60   0.0000       4.628758       125.9549 
  61   0.0000       4.999053       136.0312 
  62   0.0000       5.329659       145.0274 
  63   0.0000       5.396808       146.8546 
  64   0.0000       5.525617       150.3597 
  65   0.0000       6.064352       165.0194 
  66   0.0000       6.132178       166.8650 
  67   0.0000       7.719787       210.0661 
  68   0.0000      29.060417       790.7741 
  69   0.0000      37.104168      1009.6558 
  70   0.0000      37.208627      1012.4982 
  71   0.0000      37.216071      1012.7008 
  72   0.0000     133.515065      3633.1296 

                 SPIN DOWN ORBITALS
  NO   OCC          E(Eh)            E(eV) 
   0   1.0000     -10.172572      -276.8097 
   1   1.0000      -0.645806       -17.5733 
   2   1.0000      -0.419894       -11.4259 
   3   1.0000      -0.402312       -10.9475 
   4   0.0000      -0.077377        -2.1055 
   5   0.0000       0.003854         0.1049 
   6   0.0000       0.035392         0.9631 
   7   0.0000       0.037367         1.0168 
   8   0.0000       0.060719         1.6522 
   9   0.0000       0.087812         2.3895 
  10   0.0000       0.093552         2.5457 
  11   0.0000       0.099521         2.7081 
  12   0.0000       0.222096         6.0436 
  13   0.0000       0.226616         6.1665 
  14   0.0000       0.266450         7.2505 
  15   0.0000       0.302576         8.2335 
  16   0.0000       0.310607         8.4521 
  17   0.0000       0.317134         8.6297 
  18   0.0000       0.353697         9.6246 
  19   0.0000       0.576585        15.6897 
  20   0.0000       0.591234        16.0883 
  21   0.0000       0.740741        20.1566 
  22   0.0000       0.748283        20.3618 
  23   0.0000       0.795381        21.6434 
  24   0.0000       0.826029        22.4774 
  25   0.0000       0.883400        24.0385 
  26   0.0000       0.901261        24.5246 
  27   0.0000       0.954031        25.9605 
  28   0.0000       0.981180        26.6993 
  29   0.0000       1.086372        29.5617 
  30   0.0000       1.118499        30.4359 
  31   0.0000       1.128868        30.7180 
  32   0.0000       1.179225        32.0884 
  33   0.0000       1.182578        32.1796 
  34   0.0000       1.470857        40.0240 
  35   0.0000       1.484253        40.3886 
  36   0.0000       1.507851        41.0307 
  37   0.0000       1.712245        46.5925 
  38   0.0000       1.734495        47.1980 
  39   0.0000       1.748603        47.5819 
  40   0.0000       2.761123        75.1340 
  41   0.0000       2.772085        75.4323 
  42   0.0000       2.889128        78.6172 
  43   0.0000       2.941776        80.0498 
  44   0.0000       2.950583        80.2894 
  45   0.0000       2.985090        81.2284 
  46   0.0000       3.038111        82.6712 
  47   0.0000       3.206670        87.2579 
  48   0.0000       3.221222        87.6539 
  49   0.0000       3.305907        89.9583 
  50   0.0000       3.313458        90.1638 
  51   0.0000       3.731560       101.5409 
  52   0.0000       3.773844       102.6915 
  53   0.0000       3.794079       103.2421 
  54   0.0000       3.911978       106.4503 
  55   0.0000       3.970209       108.0349 
  56   0.0000       4.057932       110.4219 
  57   0.0000       4.126586       112.2901 
  58   0.0000       4.133270       112.4720 
  59   0.0000       4.158117       113.1481 
  60   0.0000       4.628830       125.9569 
  61   0.0000       5.021740       136.6485 
  62   0.0000       5.328847       145.0053 
  63   0.0000       5.395284       146.8131 
  64   0.0000       5.522303       150.2695 
  65   0.0000       6.066775       165.0853 
  66   0.0000       6.135130       166.9454 
  67   0.0000       7.754882       211.0211 
  68   0.0000      29.087261       791.5046 
  69   0.0000      37.092176      1009.3294 
  70   0.0000      37.196491      1012.1680 
  71   0.0000      37.204599      1012.3886 
  72   0.0000     133.522976      3633.3449 

                    ********************************
                    * MULLIKEN POPULATION ANALYSIS *
                    ********************************

--------------------------------------------
MULLIKEN ATOMIC CHARGES AND SPIN POPULATIONS
--------------------------------------------
   0 C :   -0.427066    1.104514
   1 H :    0.139855   -0.036781
   2 H :    0.140343   -0.033789
   3 H :    0.146868   -0.033944
Sum of atomic charges         :   -0.0000000
Sum of atomic spin populations:    1.0000000

-----------------------------------------------------
MULLIKEN REDUCED ORBITAL CHARGES AND SPIN POPULATIONS
-----------------------------------------------------
CHARGE
  0 C s       :     3.338261  s :     3.338261
      pz      :     1.034425  p :     3.061909
      px      :     0.993549
      py      :     1.033934
      dz2     :     0.004294  d :     0.023937
      dxz     :     0.004606
      dyz     :     0.008067
      dx2y2   :     0.002997
      dxy     :     0.003974
      f0      :     0.000180  f :     0.002958
      f+1     :     0.000480
      f-1     :     0.000804
      f+2     :     0.000246
      f-2     :     0.000620
      f+3     :     0.000463
      f-3     :     0.000166
  1 H s       :     0.834713  s :     0.834713
      pz      :     0.006966  p :     0.025432
      px      :     0.009074
      py      :     0.009392
  2 H s       :     0.832513  s :     0.832513
      pz      :     0.008976  p :     0.027144
      px      :     0.010265
      py      :     0.007903
  3 H s       :     0.826112  s :     0.826112
      pz      :     0.009481  p :     0.027020
      px      :     0.009561
      py      :     0.007979

SPIN
  0 C s       :     0.068181  s :     0.068181
      pz      :     0.187764  p :     1.040669
      px      :     0.673952
      py      :     0.178954
      dz2     :     0.000040  d :    -0.002996
      dxz     :    -0.001252
      dyz     :     0.000086
      dx2y2   :    -0.000731
      dxy     :    -0.001140
      f0      :    -0.000005  f :    -0.001340
      f+1     :    -0.000417
      f-1     :    -0.000117
      f+2     :    -0.000195
      f-2     :    -0.000143
      f+3     :    -0.000377
      f-3     :    -0.000086
  1 H s       :    -0.046337  s :    -0.046337
      pz      :     0.001375  p :     0.009556
      px      :     0.006644
      py      :     0.001537
  2 H s       :    -0.043897  s :    -0.043897
      pz      :     0.001476  p :     0.010108
      px      :     0.007410
      py      :     0.001223
  3 H s       :    -0.044458  s :    -0.044458
      pz      :     0.001820  p :     0.010514
      px      :     0.007251
      py      :     0.001443


                     *******************************
                     * LOEWDIN POPULATION ANALYSIS *
                     *******************************

-------------------------------------------
LOEWDIN ATOMIC CHARGES AND SPIN POPULATIONS
-------------------------------------------
   0 C :   -0.158124    0.911562
   1 H :    0.064991    0.025188
   2 H :    0.040864    0.033390
   3 H :    0.052269    0.029860

----------------------------------------------------
LOEWDIN REDUCED ORBITAL CHARGES AND SPIN POPULATIONS
----------------------------------------------------
CHARGE
  0 C s       :     2.888916  s :     2.888916
      pz      :     1.105202  p :     3.170591
      px      :     0.961928
      py      :     1.103462
      dz2     :     0.019630  d :     0.091127
      dxz     :     0.014605
      dyz     :     0.033420
      dx2y2   :     0.010403
      dxy     :     0.013069
      f0      :     0.000453  f :     0.007489
      f+1     :     0.001426
      f-1     :     0.001680
      f+2     :     0.000817
      f-2     :     0.001364
      f+3     :     0.001265
      f-3     :     0.000484
  1 H s       :     0.800257  s :     0.800257
      pz      :     0.032281  p :     0.134752
      px      :     0.040253
      py      :     0.062218
  2 H s       :     0.808306  s :     0.808306
      pz      :     0.054981  p :     0.150830
      px      :     0.051624
      py      :     0.044226
  3 H s       :     0.804306  s :     0.804306
      pz      :     0.061285  p :     0.143425
      px      :     0.040768
      py      :     0.041372

SPIN
  0 C s       :     0.020257  s :     0.020257
      pz      :     0.152599  p :     0.900097
      px      :     0.603000
      py      :     0.144498
      dz2     :    -0.001065  d :    -0.007469
      dxz     :    -0.001756
      dyz     :    -0.001907
      dx2y2   :    -0.001192
      dxy     :    -0.001549
      f0      :     0.000016  f :    -0.001323
      f+1     :    -0.000387
      f-1     :    -0.000217
      f+2     :    -0.000162
      f-2     :    -0.000182
      f+3     :    -0.000363
      f-3     :    -0.000027
  1 H s       :    -0.018326  s :    -0.018326
      pz      :     0.006996  p :     0.043514
      px      :     0.026854
      py      :     0.009663
  2 H s       :    -0.016011  s :    -0.016011
      pz      :     0.009668  p :     0.049401
      px      :     0.031798
      py      :     0.007935
  3 H s       :    -0.017392  s :    -0.017392
      pz      :     0.010369  p :     0.047252
      px      :     0.029033
      py      :     0.007850


                      *****************************
                      * MAYER POPULATION ANALYSIS *
                      *****************************

  NA   - Mulliken gross atomic population
  ZA   - Total nuclear charge
  QA   - Mulliken gross atomic charge
  VA   - Mayer's total valence
  BVA  - Mayer's bonded valence
  FA   - Mayer's free valence

  ATOM       NA         ZA         QA         VA         BVA        FA
  0 C      6.4271     6.0000    -0.4271     3.8742     2.9285     0.9457
  1 H      0.8601     1.0000     0.1399     0.9831     0.9810     0.0021
  2 H      0.8597     1.0000     0.1403     0.9806     0.9787     0.0019
  3 H      0.8531     1.0000     0.1469     0.9850     0.9831     0.0020

  Mayer bond orders larger than 0.100000
B(  0-C ,  1-H ) :   0.9763 B(  0-C ,  2-H ) :   0.9768 B(  0-C ,  3-H ) :   0.9754 


-------
TIMINGS
-------

Total SCF time: 0 days 0 hours 0 min 7 sec 

Total time                  ....       7.171 sec
Sum of individual times     ....       6.224 sec  ( 86.8%)

Fock matrix formation       ....       4.990 sec  ( 69.6%)
  Split-RI-J                ....       0.516 sec  ( 10.3% of F)
  Chain of spheres X        ....       0.969 sec  ( 19.4% of F)
  XC integration            ....       1.940 sec  ( 38.9% of F)
    Basis function eval.    ....       0.116 sec  (  6.0% of XC)
    Density eval.           ....       0.128 sec  (  6.6% of XC)
    XC-Functional eval.     ....       0.122 sec  (  6.3% of XC)
    XC-Potential eval.      ....       0.162 sec  (  8.4% of XC)
Diagonalization             ....       0.054 sec  (  0.8%)
Density matrix formation    ....       0.020 sec  (  0.3%)
Population analysis         ....       0.075 sec  (  1.0%)
Initial guess               ....       0.053 sec  (  0.7%)
Orbital Transformation      ....       0.000 sec  (  0.0%)
Orbital Orthonormalization  ....       0.000 sec  (  0.0%)
DIIS solution               ....       0.197 sec  (  2.7%)
Grid generation             ....       0.835 sec  ( 11.6%)

Maximum memory used throughout the entire SCF-calculation: 59.0 MB

-------------------------   --------------------
FINAL SINGLE POINT ENERGY       -39.827024917244
-------------------------   --------------------

   --->>> g-tensor requested, so NeedSOC=true

                            ***************************************
                            *     ORCA property calculations      *
                            ***************************************

                                    ---------------------
                                    Active property flags
                                    ---------------------
   (+) Dipole Moment
   (+) g-tensor
   (+) Nuclear properties (Hyperfine,Quadrupole)
   (+) Spin-Orbit Integrals are needed


------------------------------------------------------------------------------
                       ORCA ELECTRIC PROPERTIES CALCULATION
------------------------------------------------------------------------------

Dipole Moment Calculation                       ... on
Quadrupole Moment Calculation                   ... off
Polarizability Calculation                      ... off
GBWName                                         ... /home/rwth0701/scratch/cs681498/orcajob__30556148-WP2x/2686.gbw
Electron density                                ... /home/rwth0701/scratch/cs681498/orcajob__30556148-WP2x/2686.scfp
The origin for moment calculation is the CENTER OF MASS  = ( 5.732496, -21.599326 -18.151808)

-------------
DIPOLE MOMENT
-------------
                                X             Y             Z
Electronic contribution:      0.03111       0.01884       0.07641
Nuclear contribution   :     -0.04860      -0.00251      -0.09771
                        -----------------------------------------
Total Dipole Moment    :     -0.01749       0.01633      -0.02130
                        -----------------------------------------
Magnitude (a.u.)       :      0.03204
Magnitude (Debye)      :      0.08143



--------------------
Rotational spectrum 
--------------------
 
Rotational constants in cm-1:    10.157150     8.714627     4.698098 
Rotational constants in MHz : 304503.688991 261257.937574 140845.421195 

 Dipole components along the rotational axes: 
x,y,z [a.u.] :     0.003571    -0.012131    -0.029434 
x,y,z [Debye]:     0.009077    -0.030834    -0.074816 

 


           ************************************************************
           *        Program running with 4 parallel MPI-processes     *
           *              working on a common directory               *
           ************************************************************
------------------------------------------------------------------------------
                         ORCA SPIN-ORBIT COUPLING CALCULATION
------------------------------------------------------------------------------

GBW file                                    ... /home/rwth0701/scratch/cs681498/orcajob__30556148-WP2x/2686.gbw
Input density                               ... /home/rwth0701/scratch/cs681498/orcajob__30556148-WP2x/2686.scfp
Output integrals                            ... /home/rwth0701/scratch/cs681498/orcajob__30556148-WP2x/2686
Operator type                               ... Mean-field/Effective potential
   One-Electron Terms                       ... 1
   Coulomb Contribution                     ... 3
   Exchange Contribution                    ... 3
   Correlation Contribution                 ... 0
   Maximum number of centers                ... 4
SHARK 2-electron RIJ-SOMF                   ... done (  0.1 sec)
SHARK 1-electron  MaxCenter=4               ... done (  0.0 sec)
SHARK 2-electron DoJ,X=0,1 MaxCenter=1      ... done (  0.1 sec)

Maximum memory used throughout the entire SOC-calculation: 11.3 MB
Total time for SOC:  3.105


           ************************************************************
           *        Program running with 4 parallel MPI-processes     *
           *              working on a common directory               *
           ************************************************************
------------------------------------------------------------------------------
                                ORCA EPR/NMR CALCULATION
------------------------------------------------------------------------------

GBWName                      ... /home/rwth0701/scratch/cs681498/orcajob__30556148-WP2x/2686.gbw
Electron density             ... /home/rwth0701/scratch/cs681498/orcajob__30556148-WP2x/2686.scfp
Spin density                 ... /home/rwth0701/scratch/cs681498/orcajob__30556148-WP2x/2686.scfr
Spin-orbit integrals         ... /home/rwth0701/scratch/cs681498/orcajob__30556148-WP2x/2686
Treatment of gauge           ... GIAO (approximations 1/2el = 0,0)
Details of the CP(SCF) procedure:
       Solver   = POPLE   
       MaxIter  =    64   
       Tolerance=    1.000e-03
       COSX Grid=     1   
       Op-0     =   0-  4 =>   5- 72
       Op-1     =   0-  3 =>   4- 72
Multiplicity                 ... 2
g-tensor                     ... 1
NMR chemical shifts          ... 0
NMR spin-spin couplings      ... 0
NMR spectrum                 ... 0
Number of nuclei for epr/nmr ... 4
   Nucleus:   1H 
       Hyperfine : Isotope=    1 I=   0.500 P= 533.551
       Quadrupole: Isotope=    2 I=   1.000 Q=   0.003
       Spin-Orbit: Zeff=   1.000
       Nuclear Spin-Spin: Gn=   0.000
       EPRNMR Input: 
       rho(0)=N f(grad)=N a(iso)=Y a(dip)=Y a(orb)=Y sigma(nmr)=N spin-spin(nmr)=all-N,DSO-N,PSO-N,FC-N,SD-N
   Nucleus:   2H 
       Hyperfine : Isotope=    1 I=   0.500 P= 533.551
       Quadrupole: Isotope=    2 I=   1.000 Q=   0.003
       Spin-Orbit: Zeff=   1.000
       Nuclear Spin-Spin: Gn=   0.000
       EPRNMR Input: 
       rho(0)=N f(grad)=N a(iso)=Y a(dip)=Y a(orb)=Y sigma(nmr)=N spin-spin(nmr)=all-N,DSO-N,PSO-N,FC-N,SD-N
   Nucleus:   3H 
       Hyperfine : Isotope=    1 I=   0.500 P= 533.551
       Quadrupole: Isotope=    2 I=   1.000 Q=   0.003
       Spin-Orbit: Zeff=   1.000
       Nuclear Spin-Spin: Gn=   0.000
       EPRNMR Input: 
       rho(0)=N f(grad)=N a(iso)=Y a(dip)=Y a(orb)=Y sigma(nmr)=N spin-spin(nmr)=all-N,DSO-N,PSO-N,FC-N,SD-N
   Nucleus:   0C 
       Hyperfine : Isotope=   13 I=   0.500 P= 134.190
       Quadrupole: Isotope=   13 I=   0.500 Q=   0.000
       Spin-Orbit: Zeff=   3.600
       Nuclear Spin-Spin: Gn=   0.000
       EPRNMR Input: 
       rho(0)=N f(grad)=N a(iso)=Y a(dip)=Y a(orb)=Y sigma(nmr)=N spin-spin(nmr)=all-N,DSO-N,PSO-N,FC-N,SD-N
Forming RHS of the CP-SCF equations         ... 
Calculating right hand sides for GIAO treatment        ... 
  Entering RightHandSide GIAO. ScalHFX=    0.2000 NeedHFX=1
     -> 1-electron GIAO integrals will be done analytically
     -> RIJCOSX used in SCF. Same chosen for GIAO calculation.
     Making grid for GIAO integrations   ...

GRID GIAO
---------

General Integration Accuracy     IntAcc      ... 4.388
Radial Grid Type                 RadialGrid  ... OptM3 with GC (2021)
Angular Grid (max. ang.)         AngularGrid ... 4 (Lebedev-302)
Angular grid pruning method      GridPruning ... 4 (adaptive)
Weight generation scheme         WeightScheme... Becke
Basis function cutoff            BFCut       ... 1.0000e-10
Integration weight cutoff        WCut        ... 1.0000e-14
Angular grids for H and He will be reduced by one unit
Partially contracted basis set               ... off
Rotationally invariant grid construction     ... off

Total number of grid points                  ...    17058
Total number of batches                      ...      268
Average number of points per batch           ...       63
Average number of grid points per atom       ...     4264

  One-electron GIAO integrals (SHARK)     ... done
  Calculating G(B)[P]                     ... (RI-J: SHARK-ok) (COSX-ok) (add-J+K:ok) => dG/dB done
  DFT XC-terms                            ... done
  Extracting occupied and virtual blocks  ... 
  Operator  0  NO=   5 NV=  68 
  Operator  1  NO=   4 NV=  69 
  Transforming and RHS contribution       ... done
  Adding eps_i * S(B)_ai terms            ... done
  Projecting overlap derivatives          ... done
  Building G[dS/dB_ij] (COSX)             ... done
  Transforming to MO basis                ... done
  Summing G[dS/dB_ij] into RHS contribs.  ... done

  GIAO profiling information: 
    Total GIAO time               ...       0.8 sec
       GIAO 1-electron integrals  ...       0.0 sec (  1.2%)
       GIAO G(dS/dB) terms        ...       0.1 sec ( 11.7%)
       GIAO RI-J                  ...       0.1 sec ( 12.3%)
       GIAO COSX                  ...       0.2 sec ( 18.1%)
       GIAO XC-terms              ...       0.3 sec ( 34.9%)

  GIAO right hand side done


------------------------------------------------------------------------------
                           ORCA CP-SCF CALCULATION
------------------------------------------------------------------------------

Input orbitals are from        ... /home/rwth0701/scratch/cs681498/orcajob__30556148-WP2x/2686.gbw
Input Perturbation             ... /home/rwth0701/scratch/cs681498/orcajob__30556148-WP2x/2686.pin.tmp
Wavefunction output            ... /home/rwth0701/scratch/cs681498/orcajob__30556148-WP2x/2686.pout.tmp
Perturbation mode              ... Imaginary perturbation
Solver                         ... POPLE
Max. number of iterations      ... 64
Convergence tolerance          ... 1.000e-03
Integral handling              ... Direct
DFT GridXC                     ... 1
COSX GridX                     ... 1
COSX IntAccX                   ... 3.067
COSX Algorithm                 ... Auto
Number of perturbations        ... 3
Number of operators            ... 2
Orbital ranges used for CP-SCF:
 Operator 0:  Orbitals   0...  4  to   5... 72
 Operator 1:  Orbitals   0...  3  to   4... 72
Variables per perturbation     ... 616
DFT calculation                         ... on
XC functional terms                     ... off
Hybrid DFT                              ... on
   Exchange mixing (SCF)                ...  0.200
   Exchange mixing (CP-SCF)             ...  0.200
   GGA exch. scaling(SCF)               ...  0.720
   GGA exch. scaling (CP-SCF)           ...  0.720
   GGA corr. scaling (SCF)              ...  0.810
   GGA corr. scaling (CP-SCF)           ...  0.810

CP-SCF GRID
-----------

General Integration Accuracy     IntAcc      ... 3.467
Radial Grid Type                 RadialGrid  ... OptM3 with GC (2021)
Angular Grid (max. ang.)         AngularGrid ... 1 (Lebedev-50)
Angular grid pruning method      GridPruning ... 4 (adaptive)
Weight generation scheme         WeightScheme... Becke
Basis function cutoff            BFCut       ... 1.0000e-10
Integration weight cutoff        WCut        ... 1.0000e-14
Angular grids for H and He will be reduced by one unit
Partially contracted basis set               ... off
Rotationally invariant grid construction     ... off

Total number of grid points                  ...     2333
Total number of batches                      ...       38
Average number of points per batch           ...       61
Average number of grid points per atom       ...      583

CP-SCF GRIDX
------------

General Integration Accuracy     IntAcc      ... 3.067
Radial Grid Type                 RadialGrid  ... OptM3 with GC (2021)
Angular Grid (max. ang.)         AngularGrid ... 1 (Lebedev-50)
Angular grid pruning method      GridPruning ... 4 (adaptive)
Weight generation scheme         WeightScheme... Becke
Basis function cutoff            BFCut       ... 1.0000e-10
Integration weight cutoff        WCut        ... 1.0000e-14
Angular grids for H and He will be reduced by one unit
Partially contracted basis set               ... on
Rotationally invariant grid construction     ... off

Total number of grid points                  ...     1074
Total number of batches                      ...       20
Average number of points per batch           ...       53
Average number of grid points per atom       ...      268

Memory available               ... 1014.6 MB
Memory needed per perturbation ...   0.4 MB
Perturbations treated per batch... 3
Number of batches              ... 1
     CP-SCF ITERATION   0:   1.0077e+00 (   0.1 sec   0/  3 done)
     CP-SCF ITERATION   1:   2.5110e-02 (   0.1 sec   0/  3 done)
     CP-SCF ITERATION   2:   1.5965e-03 (   0.1 sec   1/  3 done)
     CP-SCF ITERATION   3:   6.3172e-05 (   0.1 sec   3/  3 done)
                    *** THE CP-SCF HAS CONVERGED ***

Forming final perturbed densities           ... done
Transforming perturbed density to AO basis  ... done

Magnetic field perturbation calculated in  1.289 sec
GIAO: Diamagnetic terms      (analytic)     (SHARK) ... done
GIAO: 1el-Paramagnetic terms (analytic)     (SHARK) ... done

-------------------
ELECTRONIC G-MATRIX
-------------------

 The g-matrix: 
              2.0024366    0.0002043   -0.0002215
              0.0002095    2.0028005    0.0001198
             -0.0002152    0.0001175    2.0027879

 gel          2.0023193    2.0023193    2.0023193
 gRMC        -0.0001272   -0.0001272   -0.0001272
 gDSO(tot)    0.0000343    0.0000708    0.0000709
 gPSO(tot)    0.0000059    0.0006167    0.0006500
             ----------   ----------   ----------
 g(tot)       2.0022323    2.0028796    2.0029130 iso=  2.0026750
 Delta-g     -0.0000870    0.0005603    0.0005937 iso=  0.0003557
 Orientation: 
  X           0.8273061   -0.5617493    0.0015383
  Y          -0.3864571   -0.5711310   -0.7241963
  Z           0.4076953    0.5985375   -0.6895921

Notes:  (1) The g-matrix conforms to the "BgS" spin Hamiltonian convention. 
        (2) The principal values are square roots of the eigenvalues of g*gT.
        (3) Orientations are eigenvectors of g*gT written as column vectors.
        (4) Individual contributions are projections of the full matrices onto the eigenvectors of g*gT.
        (5) Tensor is right-handed.


-----------------------------------------
ELECTRIC AND MAGNETIC HYPERFINE STRUCTURE
-----------------------------------------

 -----------------------------------------------------------
 Nucleus   1H : A:ISTP=    1 I=  0.5 P=533.5514 MHz/au**3
                Q:ISTP=    2 I=  1.0 Q=  0.0029 barn     
 -----------------------------------------------------------
 Solving for nuclear perturbation:
Forming RHS of the CP-SCF equations         ... 
Calc. nucleus orbit integrals (SHARK)       ... done

------------------------------------------------------------------------------
                           ORCA CP-SCF CALCULATION
------------------------------------------------------------------------------

Input orbitals are from        ... /home/rwth0701/scratch/cs681498/orcajob__30556148-WP2x/2686.gbw
Input Perturbation             ... /home/rwth0701/scratch/cs681498/orcajob__30556148-WP2x/2686.pin.tmp
Wavefunction output            ... /home/rwth0701/scratch/cs681498/orcajob__30556148-WP2x/2686.pout.tmp
Perturbation mode              ... Imaginary perturbation
Solver                         ... POPLE
Max. number of iterations      ... 64
Convergence tolerance          ... 1.000e-03
Integral handling              ... Direct
DFT GridXC                     ... 1
COSX GridX                     ... 1
COSX IntAccX                   ... 3.067
COSX Algorithm                 ... Auto
Number of perturbations        ... 3
Number of operators            ... 2
Orbital ranges used for CP-SCF:
 Operator 0:  Orbitals   0...  4  to   5... 72
 Operator 1:  Orbitals   0...  3  to   4... 72
Variables per perturbation     ... 616
DFT calculation                         ... on
XC functional terms                     ... off
Hybrid DFT                              ... on
   Exchange mixing (SCF)                ...  0.200
   Exchange mixing (CP-SCF)             ...  0.200
   GGA exch. scaling(SCF)               ...  0.720
   GGA exch. scaling (CP-SCF)           ...  0.720
   GGA corr. scaling (SCF)              ...  0.810
   GGA corr. scaling (CP-SCF)           ...  0.810

CP-SCF GRID
-----------

General Integration Accuracy     IntAcc      ... 3.467
Radial Grid Type                 RadialGrid  ... OptM3 with GC (2021)
Angular Grid (max. ang.)         AngularGrid ... 1 (Lebedev-50)
Angular grid pruning method      GridPruning ... 4 (adaptive)
Weight generation scheme         WeightScheme... Becke
Basis function cutoff            BFCut       ... 1.0000e-10
Integration weight cutoff        WCut        ... 1.0000e-14
Angular grids for H and He will be reduced by one unit
Partially contracted basis set               ... off
Rotationally invariant grid construction     ... off

Total number of grid points                  ...     2333
Total number of batches                      ...       38
Average number of points per batch           ...       61
Average number of grid points per atom       ...      583

CP-SCF GRIDX
------------

General Integration Accuracy     IntAcc      ... 3.067
Radial Grid Type                 RadialGrid  ... OptM3 with GC (2021)
Angular Grid (max. ang.)         AngularGrid ... 1 (Lebedev-50)
Angular grid pruning method      GridPruning ... 4 (adaptive)
Weight generation scheme         WeightScheme... Becke
Basis function cutoff            BFCut       ... 1.0000e-10
Integration weight cutoff        WCut        ... 1.0000e-14
Angular grids for H and He will be reduced by one unit
Partially contracted basis set               ... on
Rotationally invariant grid construction     ... off

Total number of grid points                  ...     1074
Total number of batches                      ...       20
Average number of points per batch           ...       53
Average number of grid points per atom       ...      268

Memory available               ... 968.0 MB
Memory needed per perturbation ...   0.4 MB
Perturbations treated per batch... 3
Number of batches              ... 1
     CP-SCF ITERATION   0:   5.7488e-02 (   0.1 sec   0/  3 done)
     CP-SCF ITERATION   1:   2.2779e-03 (   0.1 sec   0/  3 done)
     CP-SCF ITERATION   2:   1.6008e-04 (   0.1 sec   3/  3 done)
                    *** THE CP-SCF HAS CONVERGED ***

Forming final perturbed densities           ... done
Transforming perturbed density to AO basis  ... done

 Raw HFC matrix (all values in MHz): 
 -----------------------------------
               -70.0098              10.2367              18.5828
                10.2367             -35.7066              11.7804
                18.5828              11.7805             -92.0853

 A(FC)         -65.9479             -65.9479             -65.9479
 A(SD)          37.5669              -0.3950             -37.1718
 A(ORB+DIA)      0.0132              -0.0007               0.0294    A(PC) =   0.0140
 A(ORB)          0.0086               0.0004               0.0282    A(PC) =   0.0124
 A(DIA)          0.0045              -0.0011               0.0013    A(PC) =   0.0016
             ----------           ----------           ----------
 A(Tot)        -28.3678             -66.3436            -103.0903    A(iso)=  -65.9339
 Orientation: 
  X          -0.3404122            0.8152250           -0.4685379
  Y          -0.9018609           -0.4240581           -0.0825937
  Z          -0.2660197            0.3944400            0.8795741

Notes:  (1) The A matrix conforms to the "SAI" spin Hamiltonian convention.
        (2) Tensor is right-handed.

 -----------------------------------------------------------
 Nucleus   2H : A:ISTP=    1 I=  0.5 P=533.5514 MHz/au**3
                Q:ISTP=    2 I=  1.0 Q=  0.0029 barn     
 -----------------------------------------------------------
 Solving for nuclear perturbation:
Forming RHS of the CP-SCF equations         ... 
Calc. nucleus orbit integrals (SHARK)       ... done

------------------------------------------------------------------------------
                           ORCA CP-SCF CALCULATION
------------------------------------------------------------------------------

Input orbitals are from        ... /home/rwth0701/scratch/cs681498/orcajob__30556148-WP2x/2686.gbw
Input Perturbation             ... /home/rwth0701/scratch/cs681498/orcajob__30556148-WP2x/2686.pin.tmp
Wavefunction output            ... /home/rwth0701/scratch/cs681498/orcajob__30556148-WP2x/2686.pout.tmp
Perturbation mode              ... Imaginary perturbation
Solver                         ... POPLE
Max. number of iterations      ... 64
Convergence tolerance          ... 1.000e-03
Integral handling              ... Direct
DFT GridXC                     ... 1
COSX GridX                     ... 1
COSX IntAccX                   ... 3.067
COSX Algorithm                 ... Auto
Number of perturbations        ... 3
Number of operators            ... 2
Orbital ranges used for CP-SCF:
 Operator 0:  Orbitals   0...  4  to   5... 72
 Operator 1:  Orbitals   0...  3  to   4... 72
Variables per perturbation     ... 616
DFT calculation                         ... on
XC functional terms                     ... off
Hybrid DFT                              ... on
   Exchange mixing (SCF)                ...  0.200
   Exchange mixing (CP-SCF)             ...  0.200
   GGA exch. scaling(SCF)               ...  0.720
   GGA exch. scaling (CP-SCF)           ...  0.720
   GGA corr. scaling (SCF)              ...  0.810
   GGA corr. scaling (CP-SCF)           ...  0.810

CP-SCF GRID
-----------

General Integration Accuracy     IntAcc      ... 3.467
Radial Grid Type                 RadialGrid  ... OptM3 with GC (2021)
Angular Grid (max. ang.)         AngularGrid ... 1 (Lebedev-50)
Angular grid pruning method      GridPruning ... 4 (adaptive)
Weight generation scheme         WeightScheme... Becke
Basis function cutoff            BFCut       ... 1.0000e-10
Integration weight cutoff        WCut        ... 1.0000e-14
Angular grids for H and He will be reduced by one unit
Partially contracted basis set               ... off
Rotationally invariant grid construction     ... off

Total number of grid points                  ...     2333
Total number of batches                      ...       38
Average number of points per batch           ...       61
Average number of grid points per atom       ...      583

CP-SCF GRIDX
------------

General Integration Accuracy     IntAcc      ... 3.067
Radial Grid Type                 RadialGrid  ... OptM3 with GC (2021)
Angular Grid (max. ang.)         AngularGrid ... 1 (Lebedev-50)
Angular grid pruning method      GridPruning ... 4 (adaptive)
Weight generation scheme         WeightScheme... Becke
Basis function cutoff            BFCut       ... 1.0000e-10
Integration weight cutoff        WCut        ... 1.0000e-14
Angular grids for H and He will be reduced by one unit
Partially contracted basis set               ... on
Rotationally invariant grid construction     ... off

Total number of grid points                  ...     1074
Total number of batches                      ...       20
Average number of points per batch           ...       53
Average number of grid points per atom       ...      268

Memory available               ... 967.8 MB
Memory needed per perturbation ...   0.4 MB
Perturbations treated per batch... 3
Number of batches              ... 1
     CP-SCF ITERATION   0:   6.0138e-02 (   0.1 sec   0/  3 done)
     CP-SCF ITERATION   1:   2.3818e-03 (   0.1 sec   0/  3 done)
     CP-SCF ITERATION   2:   2.0708e-04 (   0.1 sec   3/  3 done)
                    *** THE CP-SCF HAS CONVERGED ***

Forming final perturbed densities           ... done
Transforming perturbed density to AO basis  ... done

 Raw HFC matrix (all values in MHz): 
 -----------------------------------
               -51.3303               5.8597             -16.1609
                 5.8598             -80.5621             -32.5493
               -16.1609             -32.5492             -56.7351

 A(FC)         -62.8902             -62.8902             -62.8902
 A(SD)          39.0180               1.8429             -40.8609
 A(ORB+DIA)      0.0120              -0.0006               0.0319    A(PC) =   0.0144
 A(ORB)          0.0069               0.0005               0.0304    A(PC) =   0.0126
 A(DIA)          0.0051              -0.0012               0.0015    A(PC) =   0.0018
             ----------           ----------           ----------
 A(Tot)        -23.8603             -61.0479            -103.7192    A(iso)=  -62.8758
 Orientation: 
  X           0.5205115            0.8489314           -0.0915599
  Y           0.4649129           -0.3717200           -0.8035423
  Z          -0.7161869            0.3756857           -0.5881637

Notes:  (1) The A matrix conforms to the "SAI" spin Hamiltonian convention.
        (2) Tensor is right-handed.

 -----------------------------------------------------------
 Nucleus   3H : A:ISTP=    1 I=  0.5 P=533.5514 MHz/au**3
                Q:ISTP=    2 I=  1.0 Q=  0.0029 barn     
 -----------------------------------------------------------
 Solving for nuclear perturbation:
Forming RHS of the CP-SCF equations         ... 
Calc. nucleus orbit integrals (SHARK)       ... done

------------------------------------------------------------------------------
                           ORCA CP-SCF CALCULATION
------------------------------------------------------------------------------

Input orbitals are from        ... /home/rwth0701/scratch/cs681498/orcajob__30556148-WP2x/2686.gbw
Input Perturbation             ... /home/rwth0701/scratch/cs681498/orcajob__30556148-WP2x/2686.pin.tmp
Wavefunction output            ... /home/rwth0701/scratch/cs681498/orcajob__30556148-WP2x/2686.pout.tmp
Perturbation mode              ... Imaginary perturbation
Solver                         ... POPLE
Max. number of iterations      ... 64
Convergence tolerance          ... 1.000e-03
Integral handling              ... Direct
DFT GridXC                     ... 1
COSX GridX                     ... 1
COSX IntAccX                   ... 3.067
COSX Algorithm                 ... Auto
Number of perturbations        ... 3
Number of operators            ... 2
Orbital ranges used for CP-SCF:
 Operator 0:  Orbitals   0...  4  to   5... 72
 Operator 1:  Orbitals   0...  3  to   4... 72
Variables per perturbation     ... 616
DFT calculation                         ... on
XC functional terms                     ... off
Hybrid DFT                              ... on
   Exchange mixing (SCF)                ...  0.200
   Exchange mixing (CP-SCF)             ...  0.200
   GGA exch. scaling(SCF)               ...  0.720
   GGA exch. scaling (CP-SCF)           ...  0.720
   GGA corr. scaling (SCF)              ...  0.810
   GGA corr. scaling (CP-SCF)           ...  0.810

CP-SCF GRID
-----------

General Integration Accuracy     IntAcc      ... 3.467
Radial Grid Type                 RadialGrid  ... OptM3 with GC (2021)
Angular Grid (max. ang.)         AngularGrid ... 1 (Lebedev-50)
Angular grid pruning method      GridPruning ... 4 (adaptive)
Weight generation scheme         WeightScheme... Becke
Basis function cutoff            BFCut       ... 1.0000e-10
Integration weight cutoff        WCut        ... 1.0000e-14
Angular grids for H and He will be reduced by one unit
Partially contracted basis set               ... off
Rotationally invariant grid construction     ... off

Total number of grid points                  ...     2333
Total number of batches                      ...       38
Average number of points per batch           ...       61
Average number of grid points per atom       ...      583

CP-SCF GRIDX
------------

General Integration Accuracy     IntAcc      ... 3.067
Radial Grid Type                 RadialGrid  ... OptM3 with GC (2021)
Angular Grid (max. ang.)         AngularGrid ... 1 (Lebedev-50)
Angular grid pruning method      GridPruning ... 4 (adaptive)
Weight generation scheme         WeightScheme... Becke
Basis function cutoff            BFCut       ... 1.0000e-10
Integration weight cutoff        WCut        ... 1.0000e-14
Angular grids for H and He will be reduced by one unit
Partially contracted basis set               ... on
Rotationally invariant grid construction     ... off

Total number of grid points                  ...     1074
Total number of batches                      ...       20
Average number of points per batch           ...       53
Average number of grid points per atom       ...      268

Memory available               ... 967.7 MB
Memory needed per perturbation ...   0.4 MB
Perturbations treated per batch... 3
Number of batches              ... 1
     CP-SCF ITERATION   0:   6.3326e-02 (   0.1 sec   0/  3 done)
     CP-SCF ITERATION   1:   2.5865e-03 (   0.1 sec   0/  3 done)
     CP-SCF ITERATION   2:   2.1495e-04 (   0.1 sec   3/  3 done)
                    *** THE CP-SCF HAS CONVERGED ***

Forming final perturbed densities           ... done
Transforming perturbed density to AO basis  ... done

 Raw HFC matrix (all values in MHz): 
 -----------------------------------
               -74.2131             -20.9096              -1.2162
               -20.9098             -82.4761              24.6947
                -1.2164              24.6941             -41.8176

 A(FC)         -66.1829             -66.1829             -66.1829
 A(SD)          38.4381               0.8537             -39.2919
 A(ORB+DIA)      0.0122              -0.0006               0.0302    A(PC) =   0.0139
 A(ORB)          0.0073               0.0005               0.0288    A(PC) =   0.0122
 A(DIA)          0.0049              -0.0011               0.0014    A(PC) =   0.0017
             ----------           ----------           ----------
 A(Tot)        -27.7325             -65.3298            -105.4445    A(iso)=  -66.1689
 Orientation: 
  X          -0.2349238           -0.8195349           -0.5226599
  Y           0.4728275            0.3734528           -0.7981022
  Z           0.8492614           -0.4346212            0.2997657

Notes:  (1) The A matrix conforms to the "SAI" spin Hamiltonian convention.
        (2) Tensor is right-handed.

 -----------------------------------------------------------
 Nucleus   0C : A:ISTP=   13 I=  0.5 P=134.1903 MHz/au**3
                Q:ISTP=   13 I=  0.5 Q=  0.0000 barn     
 -----------------------------------------------------------
 Solving for nuclear perturbation:
Forming RHS of the CP-SCF equations         ... 
Calc. nucleus orbit integrals (SHARK)       ... done

------------------------------------------------------------------------------
                           ORCA CP-SCF CALCULATION
------------------------------------------------------------------------------

Input orbitals are from        ... /home/rwth0701/scratch/cs681498/orcajob__30556148-WP2x/2686.gbw
Input Perturbation             ... /home/rwth0701/scratch/cs681498/orcajob__30556148-WP2x/2686.pin.tmp
Wavefunction output            ... /home/rwth0701/scratch/cs681498/orcajob__30556148-WP2x/2686.pout.tmp
Perturbation mode              ... Imaginary perturbation
Solver                         ... POPLE
Max. number of iterations      ... 64
Convergence tolerance          ... 1.000e-03
Integral handling              ... Direct
DFT GridXC                     ... 1
COSX GridX                     ... 1
COSX IntAccX                   ... 3.067
COSX Algorithm                 ... Auto
Number of perturbations        ... 3
Number of operators            ... 2
Orbital ranges used for CP-SCF:
 Operator 0:  Orbitals   0...  4  to   5... 72
 Operator 1:  Orbitals   0...  3  to   4... 72
Variables per perturbation     ... 616
DFT calculation                         ... on
XC functional terms                     ... off
Hybrid DFT                              ... on
   Exchange mixing (SCF)                ...  0.200
   Exchange mixing (CP-SCF)             ...  0.200
   GGA exch. scaling(SCF)               ...  0.720
   GGA exch. scaling (CP-SCF)           ...  0.720
   GGA corr. scaling (SCF)              ...  0.810
   GGA corr. scaling (CP-SCF)           ...  0.810

CP-SCF GRID
-----------

General Integration Accuracy     IntAcc      ... 3.467
Radial Grid Type                 RadialGrid  ... OptM3 with GC (2021)
Angular Grid (max. ang.)         AngularGrid ... 1 (Lebedev-50)
Angular grid pruning method      GridPruning ... 4 (adaptive)
Weight generation scheme         WeightScheme... Becke
Basis function cutoff            BFCut       ... 1.0000e-10
Integration weight cutoff        WCut        ... 1.0000e-14
Angular grids for H and He will be reduced by one unit
Partially contracted basis set               ... off
Rotationally invariant grid construction     ... off

Total number of grid points                  ...     2333
Total number of batches                      ...       38
Average number of points per batch           ...       61
Average number of grid points per atom       ...      583

CP-SCF GRIDX
------------

General Integration Accuracy     IntAcc      ... 3.067
Radial Grid Type                 RadialGrid  ... OptM3 with GC (2021)
Angular Grid (max. ang.)         AngularGrid ... 1 (Lebedev-50)
Angular grid pruning method      GridPruning ... 4 (adaptive)
Weight generation scheme         WeightScheme... Becke
Basis function cutoff            BFCut       ... 1.0000e-10
Integration weight cutoff        WCut        ... 1.0000e-14
Angular grids for H and He will be reduced by one unit
Partially contracted basis set               ... on
Rotationally invariant grid construction     ... off

Total number of grid points                  ...     1074
Total number of batches                      ...       20
Average number of points per batch           ...       53
Average number of grid points per atom       ...      268

Memory available               ... 967.6 MB
Memory needed per perturbation ...   0.4 MB
Perturbations treated per batch... 3
Number of batches              ... 1
     CP-SCF ITERATION   0:   1.0555e+00 (   0.1 sec   0/  3 done)
     CP-SCF ITERATION   1:   4.0404e-02 (   0.1 sec   0/  3 done)
     CP-SCF ITERATION   2:   2.9697e-03 (   0.1 sec   0/  3 done)
     CP-SCF ITERATION   3:   1.4345e-04 (   0.1 sec   3/  3 done)
                    *** THE CP-SCF HAS CONVERGED ***

Forming final perturbed densities           ... done
Transforming perturbed density to AO basis  ... done

 Raw HFC matrix (all values in MHz): 
 -----------------------------------
               171.6324             -77.8264              80.5958
               -77.8264              43.2944             -38.0844
                80.5958             -38.0844              45.3822

 A(FC)          86.8862              86.8862              86.8862
 A(SD)         -80.6339             -80.1155             160.7494
 A(ORB+DIA)     -0.1686              -0.1683              -0.0126    A(PC) =  -0.1165
 A(ORB)         -0.1690              -0.1687              -0.0125    A(PC) =  -0.1167
 A(DIA)          0.0004               0.0004              -0.0001    A(PC) =   0.0002
             ----------           ----------           ----------
 A(Tot)          6.0837               6.6023             247.6230    A(iso)=   86.7697
 Orientation: 
  X          -0.3082704            0.4690966           -0.8275976
  Y           0.2843674            0.8756283            0.3903977
  Z           0.9078020           -0.1149937           -0.4033260

Notes:  (1) The A matrix conforms to the "SAI" spin Hamiltonian convention.
        (2) Tensor is right-handed.


--------------------------------------------------------------------------------
----------------------------------------------------------------------------
                           ORCA EULER ANGLE PROGRAM
----------------------------------------------------------------------------

Only g-tensor available        -->  using g-tensor as reference tensor

Reference tensor               ...  g

g-tensor ordering              ...  |g_min> --> |gx>
                                    |g_mid> --> |gy>
                                    |g_max> --> |gz>

A- and EFG-tensor ordering     ...  the axes |Ax>, |Qx>, |Ay>, etc. are assigned
                                    such that the Euler rotation is minimal. You
                                    can find the respective eigenvalues as Ax,
                                    EFGx, Ay, etc. in the tables below.
                                    The relation of |Ax>, |Ay>,  etc. to Amin, Amid, etc.
                                    (as printed in the ORCA EPR/NMR CALCULATION Output)
                                    is obtained in the detailed printout.

Euler rotation around          ...  z - y - z
   First rotation              -->  by alpha around z
   Second rotation             -->  by beta around y'
   Third rotation              -->  by gamma around z''
   Positive / Negative angle   -->  clockwise / counterclockwise rotation

Plot EFG-tensors                    (-)
Plot HFC-tensors                    (-)
Detailed Printout                   (-)

-------------------------------------------------------------------------
          Euler rotation of hyperfine tensor to g-tensor
-------------------------------------------------------------------------

-------------------------------------------------------------------
 Atom  |   Alpha    Beta    Gamma   |   Ax       Ay       Az 
       |          [degrees]         |           [MHz]         
-------------------------------------------------------------------
  1H      -86.2     33.3     85.7     -66.34  -103.09   -28.37
  2H      -85.9      9.1     88.2     -61.05   -23.86  -103.72
  3H       94.3     21.8    -94.8     -65.33  -105.44   -27.73
  0C       89.4     33.7    -89.5     247.62     6.60     6.08
-------------------------------------------------------------------


Maximum memory used throughout the entire EPRNMR-calculation: 67.6 MB

Timings for individual modules:

Sum of individual times         ...       26.704 sec (=   0.445 min)
GTO integral calculation        ...        5.722 sec (=   0.095 min)  21.4 %
Spin-Orbit-Coupling Matrices    ...        3.097 sec (=   0.052 min)  11.6 %
SCF iterations                  ...       10.814 sec (=   0.180 min)  40.5 %
EPR/NMR calculation             ...        7.071 sec (=   0.118 min)  26.5 %
                             ****ORCA TERMINATED NORMALLY****
TOTAL RUN TIME: 0 days 0 hours 0 minutes 29 seconds 471 msec
