4
# ORCA AIMD Position Step 0, t=0.00 fs, E_Pot=-39.82314971 Hartree, Unit is Angstrom
 C     12.6022894301     -0.6266926546     -7.1846322451
 H     12.3092559322     -1.4837953326     -6.4853588307
 H     13.1769622509      0.2068786471     -6.7587485437
 H     12.0584043831     -0.4595369654     -8.0963961825
4
# ORCA AIMD Position Step 1, t=0.50 fs, E_Pot=-39.82075819 Hartree, Unit is Angstrom
 C     12.6025872427     -0.6199104197     -7.1872981893
 H     12.3068652825     -1.5029801143     -6.4777597940
 H     13.1815426122      0.2225250392     -6.7535329395
 H     12.0559168590     -0.4627808107     -8.1065448793
4
# ORCA AIMD Position Step 2, t=1.00 fs, E_Pot=-39.81839723 Hartree, Unit is Angstrom
 C     12.6028300492     -0.6133441389     -7.1895557480
 H     12.3060440550     -1.5177300554     -6.4739639761
 H     13.1850826612      0.2362331372     -6.7492941061
 H     12.0535477732     -0.4662831046     -8.1166496247
4
# ORCA AIMD Position Step 3, t=1.50 fs, E_Pot=-39.81661338 Hartree, Unit is Angstrom
 C     12.6030066358     -0.6070168920     -7.1913834217
 H     12.3070181218     -1.5272905281     -6.4744256915
 H     13.1871889988      0.2475064373     -6.7463128330
 H     12.0515988345     -0.4700207251     -8.1262338436
4
# ORCA AIMD Position Step 4, t=2.00 fs, E_Pot=-39.81577148 Hartree, Unit is Angstrom
 C     12.6031049083     -0.6009420880     -7.1927846921
 H     12.3099097297     -1.5312135589     -6.4793523064
 H     13.1875995781      0.2560263976     -6.7447854010
 H     12.0503544678     -0.4739553962     -8.1348554558
4
# ORCA AIMD Position Step 5, t=2.50 fs, E_Pot=-39.81603911 Hartree, Unit is Angstrom
 C     12.6031116356     -0.5951275893     -7.1937814762
 H     12.3147611362     -1.5293143777     -6.4887496685
 H     13.1861808134      0.2616557142     -6.7448193211
 H     12.0500641024     -0.4780319565     -8.1421434535
4
# ORCA AIMD Position Step 6, t=3.00 fs, E_Pot=-39.81737830 Hartree, Unit is Angstrom
 C     12.6030134033     -0.5895774190     -7.1944106897
 H     12.3215395141     -1.5216536230     -6.5024384754
 H     13.1829303583      0.2644372987     -6.7464327141
 H     12.0509231003     -0.4821757144     -8.1478227634
4
# ORCA AIMD Position Step 7, t=3.50 fs, E_Pot=-39.81953829 Hartree, Unit is Angstrom
 C     12.6027969903     -0.5842897312     -7.1947235903
 H     12.3301412736     -1.5085554415     -6.5200511091
 H     13.1779710896      0.2645920032     -6.7495524641
 H     12.0530699335     -0.4862972068     -8.1517266886
4
# ORCA AIMD Position Step 8, t=4.00 fs, E_Pot=-39.82205889 Hartree, Unit is Angstrom
 C     12.6024514979     -0.5792543880     -7.1947857768
 H     12.3403816302     -1.4906349315     -6.5410144275
 H     13.1715498523      0.2625149423     -6.7540172633
 H     12.0565724451     -0.4902907803     -8.1538107427
4
# ORCA AIMD Position Step 9, t=4.50 fs, E_Pot=-39.82430227 Hartree, Unit is Angstrom
 C     12.6019695394     -0.5744460654     -7.1946799604
 H     12.3519858143     -1.4688689818     -6.5645121902
 H     13.1640294943      0.2587700610     -6.7595783877
 H     12.0614303718     -0.4940409750     -8.1541561342
4
# ORCA AIMD Position Step 10, t=5.00 fs, E_Pot=-39.82555581 Hartree, Unit is Angstrom
 C     12.6013500136     -0.5698177245     -7.1945078875
 H     12.3645729648     -1.4446624295     -6.5894473462
 H     13.1558812929      0.2540795589     -6.7659060193
 H     12.0675658920     -0.4974235088     -8.1529781636
4
# ORCA AIMD Position Step 11, t=5.50 fs, E_Pot=-39.82524647 Hartree, Unit is Angstrom
 C     12.6006000478     -0.5652925408     -7.1943917075
 H     12.3776527317     -1.4199031497     -6.6144199193
 H     13.1476602863      0.2492896922     -6.7726048117
 H     12.0748286282     -0.5003113304     -8.1506168219
4
# ORCA AIMD Position Step 12, t=6.00 fs, E_Pot=-39.82326416 Hartree, Unit is Angstrom
 C     12.5997359172     -0.5607610640     -7.1944694069
 H     12.3906478459     -1.3969349324     -6.6377649320
 H     13.1399673466      0.2453168194     -6.7792397141
 H     12.0830002824     -0.5025802882     -8.1475282239
4
# ORCA AIMD Position Step 13, t=6.50 fs, E_Pot=-39.82025311 Hartree, Unit is Angstrom
 C     12.5987814972     -0.5560894434     -7.1948813122
 H     12.4029574651     -1.3783713202     -6.6576945207
 H     13.1333947578      0.2430667063     -6.7853741469
 H     12.0918043707     -0.5041154026     -8.1442658403
4
# ORCA AIMD Position Step 14, t=7.00 fs, E_Pot=-39.81755210 Hartree, Unit is Angstrom
 C     12.5977632098     -0.5511448665     -7.1957450672
 H     12.4140686501     -1.3666839797     -6.6725778479
 H     13.1284592919      0.2433334009     -6.7906176686
 H     12.1009219500     -0.5048174501     -8.1414512560
4
# ORCA AIMD Position Step 15, t=7.50 fs, E_Pot=-39.81653973 Hartree, Unit is Angstrom
 C     12.5967029752     -0.5458354092     -7.1971237506
 H     12.4236869981     -1.3636146896     -6.6813127480
 H     13.1255331027      0.2466927442     -6.7946762118
 H     12.1100140131     -0.5046093876     -8.1397320621
4
# ORCA AIMD Position Step 16, t=8.00 fs, E_Pot=-39.81771961 Hartree, Unit is Angstrom
 C     12.5956132216     -0.5401474822     -7.1990008824
 H     12.4318214872     -1.3696393782     -6.6836373896
 H     13.1247899641      0.2534175682     -6.7973921932
 H     12.1187498112     -0.5034420971     -8.1397275284
4
# ORCA AIMD Position Step 17, t=8.50 fs, E_Pot=-39.82038272 Hartree, Unit is Angstrom
 C     12.5944976187     -0.5341556257     -7.2012781408
 H     12.4387698364     -1.3837976695     -6.6802012429
 H     13.1261723500      0.2634276293     -6.7987693156
 H     12.1268455997     -0.5012996190     -8.1419593805
4
# ORCA AIMD Position Step 18, t=9.00 fs, E_Pot=-39.82318496 Hartree, Unit is Angstrom
 C     12.5933571708     -0.5279978558     -7.2038005604
 H     12.4449992427     -1.4040013808     -6.6723413818
 H     13.1294044491      0.2763060110     -6.7989649401
 H     12.1340982144     -0.4982022609     -8.1467822420
4
# ORCA AIMD Position Step 19, t=9.50 fs, E_Pot=-39.82500545 Hartree, Unit is Angstrom
 C     12.5921964329     -0.5218326250     -7.2063952025
 H     12.4510016817     -1.4276094641     -6.6617127090
 H     13.1340324105      0.2913579376     -6.7982650089
 H     12.1404154734     -0.4942039402     -8.1543175071
4
# ORCA AIMD Position Step 20, t=10.00 fs, E_Pot=-39.82538121 Hartree, Unit is Angstrom
 C     12.5910254420     -0.5158017682     -7.2089056242
 H     12.4571915290     -1.4519778802     -6.6499544211
 H     13.1394921502      0.3077142501     -6.7970370216
 H     12.1458277654     -0.4893869984     -8.1644234536
4
# ORCA AIMD Position Step 21, t=10.50 fs, E_Pot=-39.82444248 Hartree, Unit is Angstrom
 C     12.5898576322     -0.5100111604     -7.2112127757
 H     12.4638641877     -1.4748067260     -6.6384878980
 H     13.1451806721      0.3244413213     -6.7956793531
 H     12.1504828801     -0.4838545499     -8.1766994932
4
# ORCA AIMD Position Step 22, t=11.00 fs, E_Pot=-39.82264999 Hartree, Unit is Angstrom
 C     12.5887065232     -0.5045280314     -7.2132413496
 H     12.4711977132     -1.4942764636     -6.6284417710
 H     13.1505189495      0.3406380804     -6.7945761175
 H     12.1546208797     -0.4777221930     -8.1905309538
4
# ORCA AIMD Position Step 23, t=11.50 fs, E_Pot=-39.82056452 Hartree, Unit is Angstrom
 C     12.5875832004     -0.4993872439     -7.2149562677
 H     12.4792740598     -1.5090506025     -6.6206549058
 H     13.1549977912      0.3555072886     -6.7940637113
 H     12.1585370313     -0.4711109117     -8.2051617007
4
# ORCA AIMD Position Step 24, t=12.00 fs, E_Pot=-39.81870854 Hartree, Unit is Angstrom
 C     12.5864953004     -0.4946003052     -7.2163543994
 H     12.4881032777     -1.5182180660     -6.6157128246
 H     13.1582061038      0.3684001299     -6.7944100058
 H     12.1625414965     -0.4641415202     -8.2197773484
4
# ORCA AIMD Position Step 25, t=12.50 fs, E_Pot=-39.81749466 Hartree, Unit is Angstrom
 C     12.5854469355     -0.4901626803     -7.2174556622
 H     12.4976451557     -1.5212301976     -6.6139875309
 H     13.1598435271      0.3788376001     -6.7958039820
 H     12.1669259759     -0.4569319701     -8.2335818014
4
# ORCA AIMD Position Step 26, t=13.00 fs, E_Pot=-39.81718691 Hartree, Unit is Angstrom
 C     12.5844397583     -0.4860593639     -7.2182953842
 H     12.5078211074     -1.5178457233     -6.6156690728
 H     13.1597246702      0.3865181949     -6.7983529286
 H     12.1719348459     -0.4495940873     -8.2458593067
4
# ORCA AIMD Position Step 27, t=13.50 fs, E_Pot=-39.81787239 Hartree, Unit is Angstrom
 C     12.5834727300     -0.4822674596     -7.2189189961
 H     12.5185288285     -1.5081052556     -6.6207847945
 H     13.1577791695      0.3913224115     -6.8020810069
 H     12.1777531354     -0.4422334899     -8.2560196229
4
# ORCA AIMD Position Step 28, t=14.00 fs, E_Pot=-39.81943866 Hartree, Unit is Angstrom
 C     12.5825435116     -0.4787565475     -7.2193789969
 H     12.5296433805     -1.4923290159     -6.6291990962
 H     13.1540496694      0.3933110565     -6.8069322189
 H     12.1844908477     -0.4349465576     -8.2636311982
4
# ORCA AIMD Position Step 29, t=14.50 fs, E_Pot=-39.82156013 Hartree, Unit is Angstrom
 C     12.5816468695     -0.4754852372     -7.2197360925
 H     12.5410305835     -1.4711556199     -6.6405963440
 H     13.1486883279      0.3927250601     -6.8127691848
 H     12.1921920741     -0.4278232673     -8.2684257012
4
# ORCA AIMD Position Step 30, t=15.00 fs, E_Pot=-39.82371470 Hartree, Unit is Angstrom
 C     12.5807765331     -0.4723983694     -7.2200588526
 H     12.5525420578     -1.4455779251     -6.6544552897
 H     13.1419547714      0.3899815125     -6.8193799525
 H     12.2008199072     -0.4209411886     -8.2703207551
4
# ORCA AIMD Position Step 31, t=15.50 fs, E_Pot=-39.82525563 Hartree, Unit is Angstrom
 C     12.5799231099     -0.4694201974     -7.2204265433
 H     12.5640358742     -1.4170110995     -6.6700169894
 H     13.1342046338      0.3856641054     -6.8264808786
 H     12.2102721300     -0.4143691315     -8.2694153264
4
# ORCA AIMD Position Step 32, t=16.00 fs, E_Pot=-39.82557928 Hartree, Unit is Angstrom
 C     12.5790746495     -0.4664499886     -7.2209300344
 H     12.5753829496     -1.3873339854     -6.6862561989
 H     13.1258818517      0.3805080675     -6.8337259757
 H     12.2203758022     -0.4081627900     -8.2659982098
4
# ORCA AIMD Position Step 33, t=16.50 fs, E_Pot=-39.82439657 Hartree, Unit is Angstrom
 C     12.5782160364     -0.4633610713     -7.2216692950
 H     12.5864903306     -1.3588644128     -6.7018970951
 H     13.1174943053      0.3753645194     -6.8407225233
 H     12.2308956239     -0.4023645519     -8.2605467348
4
# ORCA AIMD Position Step 34, t=17.00 fs, E_Pot=-39.82201650 Hartree, Unit is Angstrom
 C     12.5773295404     -0.4600095817     -7.2227442085
 H     12.5973224524     -1.3341974088     -6.7155054375
 H     13.1095779377      0.3711428413     -6.8470557116
 H     12.2415421397     -0.3970024609     -8.2537199765
4
# ORCA AIMD Position Step 35, t=17.50 fs, E_Pot=-39.81940430 Hartree, Unit is Angstrom
 C     12.5763970399     -0.4562574141     -7.2242362365
 H     12.6079117998     -1.3158491380     -6.7256920060
 H     13.1026472948      0.3687290097     -6.8523227456
 H     12.2519840826     -0.3920898265     -8.2463403072
4
# ORCA AIMD Position Step 36, t=18.00 fs, E_Pot=-39.81777361 Hartree, Unit is Angstrom
 C     12.5754047441     -0.4520075962     -7.2261830368
 H     12.6183436123     -1.3057338401     -6.7314114714
 H     13.0971366874      0.3688857756     -6.8561743823
 H     12.2618661793     -0.3876261952     -8.2393555333
4
# ORCA AIMD Position Step 37, t=18.50 fs, E_Pot=-39.81784836 Hartree, Unit is Angstrom
 C     12.5743498349     -0.4472386150     -7.2285557010
 H     12.6287092593     -1.3046502581     -6.7322548155
 H     13.0933427995      0.3721507863     -6.8583583058
 H     12.2708340322     -0.3836004528     -8.2337740023
4
# ORCA AIMD Position Step 38, t=19.00 fs, E_Pot=-39.81940605 Hartree, Unit is Angstrom
 C     12.5732460468     -0.4420165595     -7.2312526502
 H     12.6390544472     -1.3120498027     -6.7285835571
 H     13.0913738945      0.3787558564     -6.8587535280
 H     12.2785701936     -0.3799984144     -8.2305682355
4
# ORCA AIMD Position Step 39, t=19.50 fs, E_Pot=-39.82153334 Hartree, Unit is Angstrom
 C     12.5721253745     -0.4364753498     -7.2341184080
 H     12.6493395839     -1.3262239940     -6.7214161169
 H     13.0911304606      0.3885860295     -6.8573916430
 H     12.2848327354     -0.3768112248     -8.2305431833
4
# ORCA AIMD Position Step 40, t=20.00 fs, E_Pot=-39.82327590 Hartree, Unit is Angstrom
 C     12.5710340345     -0.4307766516     -7.2369789508
 H     12.6594385416     -1.3447943762     -6.7121393814
 H     13.0923216425      0.4011972169     -6.8544551923
 H     12.2894880427     -0.3740415048     -8.2342048721
4
# ORCA AIMD Position Step 41, t=20.50 fs, E_Pot=-39.82408141 Hartree, Unit is Angstrom
 C     12.5700238282     -0.4250710286     -7.2396783008
 H     12.6691742417     -1.3652424729     -6.7022035303
 H     13.0945067824      0.4158866376     -6.8502516717
 H     12.2925366188     -0.3717070675     -8.2416555690
4
# ORCA AIMD Position Step 42, t=21.00 fs, E_Pot=-39.82384978 Hartree, Unit is Angstrom
 C     12.5691437127     -0.4194757381     -7.2421027616
 H     12.6783551148     -1.3852813162     -6.6929071301
 H     13.0971601560      0.4317953523     -6.8451733150
 H     12.2941124698     -0.3698362044     -8.2525602729
4
# ORCA AIMD Position Step 43, t=21.50 fs, E_Pot=-39.82278227 Hartree, Unit is Angstrom
 C     12.5684336159     -0.4140691446     -7.2441897671
 H     12.6868053046     -1.4030367042     -6.6852953568
 H     13.0997348593      0.4480155108     -6.8396503405
 H     12.2944627954     -0.3684593615     -8.2661900911
4
# ORCA AIMD Position Step 44, t=22.00 fs, E_Pot=-39.82122844 Hartree, Unit is Angstrom
 C     12.5679217764     -0.4088959724     -7.2459237106
 H     12.6943799876     -1.4170858229     -6.6801407853
 H     13.1017171030      0.4636818429     -6.8341085199
 H     12.2939100506     -0.3675985329     -8.2815338750
4
# ORCA AIMD Position Step 45, t=22.50 fs, E_Pot=-39.81958846 Hartree, Unit is Angstrom
 C     12.5676248439     -0.4039764271     -7.2473248006
 H     12.7009696278     -1.4264225995     -6.6779663016
 H     13.1026645469      0.4780371133     -6.8289366433
 H     12.2928081470     -0.3672581689     -8.2974407989
4
# ORCA AIMD Position Step 46, t=23.00 fs, E_Pot=-39.81824869 Hartree, Unit is Angstrom
 C     12.5675492760     -0.3993144567     -7.2484367193
 H     12.7065009225     -1.4304039432     -6.6790797595
 H     13.1022267432      0.4904722704     -6.8244636738
 H     12.2915044166     -0.3674204978     -8.3127556488
4
# ORCA AIMD Position Step 47, t=23.50 fs, E_Pot=-39.81752614 Hartree, Unit is Angstrom
 C     12.5676932055     -0.3949038497     -7.2493160627
 H     12.7109340369     -1.4286990113     -6.6836055962
 H     13.1001550811      0.5005466600     -6.8209460349
 H     12.2903101337     -0.3680439306     -8.3264256644
4
# ORCA AIMD Position Step 48, t=24.00 fs, E_Pot=-39.81761527 Hartree, Unit is Angstrom
 C     12.5680480617     -0.3907314263     -7.2500252244
 H     12.7142594568     -1.4212566872     -6.6915053819
 H     13.0963057861      0.5079944093     -6.8185622086
 H     12.2894812893     -0.3690642887     -8.3375700428
4
# ORCA AIMD Position Step 49, t=24.50 fs, E_Pot=-39.81854059 Hartree, Unit is Angstrom
 C     12.5685988867     -0.3867771746     -7.2506294016
 H     12.7165054981     -1.4083049659     -6.7025837612
 H     13.0906339964      0.5127293337     -6.8174056790
 H     12.2892131702     -0.3703992483     -8.3455165414
4
# ORCA AIMD Position Step 50, t=25.00 fs, E_Pot=-39.82012661 Hartree, Unit is Angstrom
 C     12.5693248355     -0.3830128173     -7.2511952275
 H     12.7177383472     -1.3903661005     -6.7164817313
 H     13.0831954182      0.5148448250     -6.8174848084
 H     12.2896326608     -0.3719507889     -8.3498243994
4
# ORCA AIMD Position Step 51, t=25.50 fs, E_Pot=-39.82199764 Hartree, Unit is Angstrom
 C     12.5701988988     -0.3793982731     -7.2517917940
 H     12.7180711234     -1.3682902170     -6.7326637266
 H     13.0741386345      0.5146093776     -6.8187223435
 H     12.2908001690     -0.3736098231     -8.3502853269
4
# ORCA AIMD Position Step 52, t=26.00 fs, E_Pot=-39.82362652 Hartree, Unit is Angstrom
 C     12.5711874452     -0.3758768906     -7.2524925077
 H     12.7176755646     -1.3433054632     -6.7503963239
 H     13.0636977286      0.5124637604     -6.8209535732
 H     12.2927107959     -0.3752603037     -8.3469243213
4
# ORCA AIMD Position Step 53, t=26.50 fs, E_Pot=-39.82445959 Hartree, Unit is Angstrom
 C     12.5722501201     -0.3723723161     -7.2533746274
 H     12.7167879756     -1.3170479029     -6.7687375686
 H     13.0521906181      0.5090163303     -6.8239284152
 H     12.2952912994     -0.3767818898     -8.3400137027
4
# ORCA AIMD Position Step 54, t=27.00 fs, E_Pot=-39.82412684 Hartree, Unit is Angstrom
 C     12.5733408864     -0.3687877279     -7.2545173385
 H     12.7157103724     -1.2915425934     -6.7865532273
 H     13.0400041001      0.5050200147     -6.8273192592
 H     12.2984015304     -0.3780545826     -8.3300721496
4
# ORCA AIMD Position Step 55, t=27.50 fs, E_Pot=-39.82267905 Hartree, Unit is Angstrom
 C     12.5744111947     -0.3650131832     -7.2559941011
 H     12.7147948613     -1.2690738815     -6.8025898924
 H     13.0275712266      0.5013354032     -6.8307357690
 H     12.3018349304     -0.3789633716     -8.3178683847
4
# ORCA AIMD Position Step 56, t=28.00 fs, E_Pot=-39.82069290 Hartree, Unit is Angstrom
 C     12.5754158728     -0.3609437500     -7.2578588197
 H     12.7144027123     -1.2519020804     -6.8156224788
 H     13.0153387287      0.4988697405     -6.8337515331
 H     12.3053218609     -0.3794037094     -8.3044122179
4
# ORCA AIMD Position Step 57, t=28.50 fs, E_Pot=-39.81906129 Hartree, Unit is Angstrom
 C     12.5763214123     -0.3565074501     -7.2601273657
 H     12.7148388230     -1.2418377912     -6.8246669276
 H     13.0037248774      0.4984910279     -6.8359438774
 H     12.3085385891     -0.3792876114     -8.2909223885
4
# ORCA AIMD Position Step 58, t=29.00 fs, E_Pot=-39.81850024 Hartree, Unit is Angstrom
 C     12.5771143699     -0.3516937718     -7.2627612110
 H     12.7162817146     -1.2397945525     -6.8291977487
 H     12.9930702739      0.5009265962     -6.8369423634
 H     12.3111264028     -0.3785496208     -8.2787555354
4
# ORCA AIMD Position Step 59, t=29.50 fs, E_Pot=-39.81913925 Hartree, Unit is Angstrom
 C     12.5778058322     -0.3465660965     -7.2656632982
 H     12.7187385207     -1.2455322852     -6.8292668675
 H     12.9835971839      0.5066583371     -6.8364830050
 H     12.3127240670     -0.3771510217     -8.2692821706
4
# ORCA AIMD Position Step 60, t=30.00 fs, E_Pot=-39.82054567 Hartree, Unit is Angstrom
 C     12.5784297190     -0.3412485916     -7.2686927027
 H     12.7220536572     -1.2577314862     -6.8254638877
 H     12.9753738119      0.5158393086     -6.8344530223
 H     12.3130150452     -0.3750792932     -8.2637066457
4
# ORCA AIMD Position Step 61, t=30.50 fs, E_Pot=-39.82208801 Hartree, Unit is Angstrom
 C     12.5790353392     -0.3358957526     -7.2716914914
 H     12.7259612125     -1.2743375233     -6.8187515201
 H     12.9683027582      0.5282694948     -6.8309091649
 H     12.3117753179     -0.3723433592     -8.2628930773
4
# ORCA AIMD Position Step 62, t=31.00 fs, E_Pot=-39.82326068 Hartree, Unit is Angstrom
 C     12.5796746072     -0.3306550307     -7.2745204521
 H     12.7301506719     -1.2930362251     -6.8102340828
 H     12.9621547423      0.5434133984     -6.8260785838
 H     12.3089262689     -0.3689614447     -8.2671701371
4
# ORCA AIMD Position Step 63, t=31.50 fs, E_Pot=-39.82378275 Hartree, Unit is Angstrom
 C     12.5803923804     -0.3256437408     -7.2770827195
 H     12.7343238809     -1.3116216048     -6.8009829630
 H     12.9566048026      0.5604818931     -6.8203224756
 H     12.3045566703     -0.3649503283     -8.2762605252
4
# ORCA AIMD Position Step 64, t=32.00 fs, E_Pot=-39.82357280 Hartree, Unit is Angstrom
 C     12.5812201610     -0.3209407481     -7.2793326472
 H     12.7382258224     -1.3282091857     -6.7919323372
 H     12.9512864031      0.5785406905     -6.8140857049
 H     12.2989128726     -0.3603189940     -8.2893300309
4
# ORCA AIMD Position Step 65, t=32.50 fs, E_Pot=-39.82271832 Hartree, Unit is Angstrom
 C     12.5821745288     -0.3165886266     -7.2812712819
 H     12.7416567946     -1.3413175869     -6.7838369674
 H     12.9458371474      0.5966190761     -6.8078415997
 H     12.2923596544     -0.3550693736     -8.3051389981
4
# ORCA AIMD Position Step 66, t=33.00 fs, E_Pot=-39.82145507 Hartree, Unit is Angstrom
 C     12.5832587686     -0.3126009849     -7.2829335560
 H     12.7444715534     -1.3498659015     -6.7772697304
 H     12.9399351926      0.6138010835     -6.8020443317
 H     12.2853253509     -0.3492023373     -8.3222451659
4
# ORCA AIMD Position Step 67, t=33.50 fs, E_Pot=-39.82012276 Hartree, Unit is Angstrom
 C     12.5844662786     -0.3089700201     -7.2843740960
 H     12.7465741771     -1.3531390439     -6.7726351741
 H     12.9333184306      0.6292888767     -6.7970933543
 H     12.2782472304     -0.3427254210     -8.3391949118
4
# ORCA AIMD Position Step 68, t=34.00 fs, E_Pot=-39.81908824 Hartree, Unit is Angstrom
 C     12.5857837396     -0.3056728622     -7.2856556039
 H     12.7479115549     -1.3507457208     -6.7701869412
 H     12.9257952676      0.6424422208     -6.7933112561
 H     12.2715294331     -0.3356586407     -8.3546664751
4
# ORCA AIMD Position Step 69, t=34.50 fs, E_Pot=-39.81865597 Hartree, Unit is Angstrom
 C     12.5871933815     -0.3026754345     -7.2868413621
 H     12.7484684973     -1.3425877234     -6.7700403606
 H     12.9172488254      0.6527967219     -6.7909337806
 H     12.2655165730     -0.3280375778     -8.3675566143
4
# ORCA AIMD Position Step 70, t=35.00 fs, E_Pot=-39.81898812 Hartree, Unit is Angstrom
 C     12.5886750382     -0.2999339969     -7.2879932306
 H     12.7482687468     -1.3288553802     -6.7721726912
 H     12.9076261860      0.6600778377     -6.7900976262
 H     12.2604789191     -0.3199139027     -8.3770163421
4
# ORCA AIMD Position Step 71, t=35.50 fs, E_Pot=-39.82005381 Hartree, Unit is Angstrom
 C     12.5902059929     -0.2973951846     -7.2891695212
 H     12.7473737910     -1.3100260429     -6.7764217907
 H     12.8969457289      0.6641980015     -6.7908473157
 H     12.2566079993     -0.3113540420     -8.3824705663
4
# ORCA AIMD Position Step 72, t=36.00 fs, E_Pot=-39.82161149 Hartree, Unit is Angstrom
 C     12.5917619584     -0.2949927964     -7.2904298479
 H     12.7458913269     -1.2869066363     -6.7824607052
 H     12.8852765019      0.6652590676     -6.7931249809
 H     12.2540170550     -0.3024378845     -8.3835956885
4
# ORCA AIMD Position Step 73, t=36.50 fs, E_Pot=-39.82324134 Hartree, Unit is Angstrom
 C     12.5933160929     -0.2926470293     -7.2918339343
 H     12.7439782870     -1.2606519112     -6.7897852212
 H     12.8727502153      0.6635579564     -6.7967756132
 H     12.2527377081     -0.2932556697     -8.3803407874
4
# ORCA AIMD Position Step 74, t=37.00 fs, E_Pot=-39.82444245 Hartree, Unit is Angstrom
 C     12.5948403565     -0.2902620634     -7.2934448935
 H     12.7418462910     -1.2327869880     -6.7976949204
 H     12.8595395314      0.6595778890     -6.8015445024
 H     12.2527200238     -0.2839056028     -8.3729099184
4
# ORCA AIMD Position Step 75, t=37.50 fs, E_Pot=-39.82479932 Hartree, Unit is Angstrom
 C     12.5963060363     -0.2877289089     -7.2953266600
 H     12.7397584696     -1.2051770330     -6.8053005845
 H     12.8458606590      0.6539883528     -6.8070799780
 H     12.2538268128     -0.2744900780     -8.3617826486
4
# ORCA AIMD Position Step 76, t=38.00 fs, E_Pot=-39.82418112 Hartree, Unit is Angstrom
 C     12.5976864526     -0.2849331967     -7.2975386500
 H     12.7380139437     -1.1799136984     -6.8115736733
 H     12.8319604832      0.6476210137     -6.8129429900
 H     12.2558297441     -0.2651119502     -8.3477188629
4
# ORCA AIMD Position Step 77, t=38.50 fs, E_Pot=-39.82286098 Hartree, Unit is Angstrom
 C     12.5989613400     -0.2817724032     -7.3001233402
 H     12.7369116748     -1.1590729098     -6.8154671823
 H     12.8181047563      0.6414284126     -6.8186274607
 H     12.2584051180     -0.2558695322     -8.3317658347
4
# ORCA AIMD Position Step 78, t=39.00 fs, E_Pot=-39.82142040 Hartree, Unit is Angstrom
 C     12.6001243620     -0.2781798947     -7.3030893730
 H     12.7366985536     -1.1443659588     -6.8161028160
 H     12.8045426494      0.6364172890     -6.8235871164
 H     12.2611317849     -0.2468515382     -8.3152457032
4
# ORCA AIMD Position Step 79, t=39.50 fs, E_Pot=-39.82043832 Hartree, Unit is Angstrom
 C     12.6011874640     -0.2741481350     -7.3063933766
 H     12.7375098674     -1.1367650901     -6.8129857600
 H     12.7914977797      0.6335472288     -6.8272909733
 H     12.2635079302     -0.2381331559     -8.2997019257
4
# ORCA AIMD Position Step 80, t=40.00 fs, E_Pot=-39.82019213 Hartree, Unit is Angstrom
 C     12.6021832049     -0.2697378475     -7.3099326408
 H     12.7393327734     -1.1362754888     -6.8061516103
 H     12.7791413798      0.6336111632     -6.8292838500
 H     12.2649867777     -0.2297754581     -8.2867791193
4
# ORCA AIMD Position Step 81, t=40.50 fs, E_Pot=-39.82061295 Hartree, Unit is Angstrom
 C     12.6031618122     -0.2650660807     -7.3135547637
 H     12.7420087857     -1.1419537490     -6.7961808854
 H     12.7675628175      0.6371146073     -6.8292503122
 H     12.2650386786     -0.2218288520     -8.2780295521
4
# ORCA AIMD Position Step 82, t=41.00 fs, E_Pot=-39.82145753 Hartree, Unit is Angstrom
 C     12.6041796321     -0.2602752241     -7.3170860808
 H     12.7452744886     -1.1521827420     -6.7840579278
 H     12.7567766408      0.6441895613     -6.8270708051
 H     12.2632409109     -0.2143419025     -8.2746591513
4
# ORCA AIMD Position Step 83, t=41.50 fs, E_Pot=-39.82244757 Hartree, Unit is Angstrom
 C     12.6052868943     -0.2554989033     -7.3203682933
 H     12.7488206740     -1.1650420755     -6.7709617467
 H     12.7467188121      0.6545679212     -6.8228429713
 H     12.2593680407     -0.2073711778     -8.2772786812
4
# ORCA AIMD Position Step 84, t=42.00 fs, E_Pot=-39.82328974 Hartree, Unit is Angstrom
 C     12.6065159684     -0.2508378746     -7.3232881572
 H     12.7523426197     -1.1786311100     -6.7580717344
 H     12.7372735128      0.6676240694     -6.8168714380
 H     12.2534547441     -0.2009883266     -8.2857544081
4
# ORCA AIMD Position Step 85, t=42.50 fs, E_Pot=-39.82369290 Hartree, Unit is Angstrom
 C     12.6078762655     -0.2463508472     -7.3257912779
 H     12.7555743330     -1.1912804760     -6.7464330600
 H     12.7282959791      0.6824758760     -6.8096197328
 H     12.2457994837     -0.1952788956     -8.2992264571
4
# ORCA AIMD Position Step 86, t=43.00 fs, E_Pot=-39.82346239 Hartree, Unit is Angstrom
 C     12.6093554854     -0.2420582639     -7.3278775770
 H     12.7583030144     -1.2016434233     -6.7368937070
 H     12.7196397557      0.6981115150     -6.8016456529
 H     12.2369079786     -0.1903324951     -8.3162906139
4
# ORCA AIMD Position Step 87, t=43.50 fs, E_Pot=-39.82260373 Hartree, Unit is Angstrom
 C     12.6109254965     -0.2379517515     -7.3295864041
 H     12.7603723238     -1.2087148357     -6.7300874434
 H     12.7111742227      0.7135085266     -6.7935344717
 H     12.2274024342     -0.1862298450     -8.3352597424
4
# ORCA AIMD Position Step 88, t=44.00 fs, E_Pot=-39.82134144 Hartree, Unit is Angstrom
 C     12.6125494564     -0.2340045697     -7.3309791775
 H     12.7616793902     -1.2118120102     -6.7264427629
 H     12.7027955329      0.7277277389     -6.7858434656
 H     12.2179288194     -0.1830309851     -8.3544172510
4
# ORCA AIMD Position Step 89, t=44.50 fs, E_Pot=-39.82003946 Hartree, Unit is Angstrom
 C     12.6141876508     -0.2301797404     -7.3321258499
 H     12.7621704196     -1.2105465436     -6.7261991260
 H     12.6944316770      0.7399754478     -6.7790627633
 H     12.2090865603     -0.1807683626     -8.3722012778
4
# ORCA AIMD Position Step 90, t=45.00 fs, E_Pot=-39.81907617 Hartree, Unit is Angstrom
 C     12.6158016068     -0.2264352236     -7.3330967162
 H     12.7618370046     -1.2047996400     -6.7294226652
 H     12.6860401264      0.7496381853     -6.7735909031
 H     12.2013854346     -0.1794444699     -8.3873110125
4
# ORCA AIMD Position Step 91, t=45.50 fs, E_Pot=-39.81873060 Hartree, Unit is Angstrom
 C     12.6173557165     -0.2227261694     -7.3339591477
 H     12.7607136656     -1.1947083156     -6.7360158095
 H     12.6776082792      0.7562971143     -6.7697240608
 H     12.1952281300     -0.1790333178     -8.3987467649
4
# ORCA AIMD Position Step 92, t=46.00 fs, E_Pot=-39.81910557 Hartree, Unit is Angstrom
 C     12.6188185509     -0.2190041884     -7.3347789179
 H     12.7588809710     -1.1806788237     -6.7457090399
 H     12.6691403361      0.7597355542     -6.7676443755
 H     12.1909045529     -0.1794835639     -8.4058140527
4
# ORCA AIMD Position Step 93, t=46.50 fs, E_Pot=-39.82010209 Hartree, Unit is Angstrom
 C     12.6201619912     -0.2152165690     -7.3356210012
 H     12.7564645468     -1.1633904868     -6.7580610113
 H     12.6606637855      0.7599365180     -6.7674229319
 H     12.1885967190     -0.1807219990     -8.4081108589
4
# ORCA AIMD Position Step 94, t=47.00 fs, E_Pot=-39.82143970 Hartree, Unit is Angstrom
 C     12.6213619622     -0.2113048112     -7.3365515052
 H     12.7536378629     -1.1438123772     -6.7724499017