Job execution start: Mon Oct 24 16:43:20 CEST 2022
Shared library path: /home/cs681498/orca:/opt/MPI/openmpi-4.1.1/linux/gcc_4.8.5/lib:/opt/MPI/openmpi-4.1.1/linux/gcc_4.8.5/lib/lib32
Slurm Job ID is: 30556317
Slurm Job name is: 8665
ncm0304

                                 *****************
                                 * O   R   C   A *
                                 *****************

                                            #,                                       
                                            ###                                      
                                            ####                                     
                                            #####                                    
                                            ######                                   
                                           ########,                                 
                                     ,,################,,,,,                         
                               ,,#################################,,                 
                          ,,##########################################,,             
                       ,#########################################, ''#####,          
                    ,#############################################,,   '####,        
                  ,##################################################,,,,####,       
                ,###########''''           ''''###############################       
              ,#####''   ,,,,##########,,,,          '''####'''          '####       
            ,##' ,,,,###########################,,,                        '##       
           ' ,,###''''                  '''############,,,                           
         ,,##''                                '''############,,,,        ,,,,,,###''
      ,#''                                            '''#######################'''  
     '                                                          ''''####''''         
             ,#######,   #######,   ,#######,      ##                                
            ,#'     '#,  ##    ##  ,#'     '#,    #''#        ######   ,####,        
            ##       ##  ##   ,#'  ##            #'  '#       #        #'  '#        
            ##       ##  #######   ##           ,######,      #####,   #    #        
            '#,     ,#'  ##    ##  '#,     ,#' ,#      #,         ##   #,  ,#        
             '#######'   ##     ##  '#######'  #'      '#     #####' # '####'        



                  #######################################################
                  #                        -***-                        #
                  #          Department of theory and spectroscopy      #
                  #    Directorship and core code : Frank Neese         #
                  #        Max Planck Institute fuer Kohlenforschung    #
                  #                Kaiser Wilhelm Platz 1               #
                  #                 D-45470 Muelheim/Ruhr               #
                  #                      Germany                        #
                  #                                                     #
                  #                  All rights reserved                #
                  #                        -***-                        #
                  #######################################################


                         Program Version 5.0.3 -  RELEASE  -


 With contributions from (in alphabetic order):
   Daniel Aravena         : Magnetic Suceptibility
   Michael Atanasov       : Ab Initio Ligand Field Theory (pilot matlab implementation)
   Alexander A. Auer      : GIAO ZORA, VPT2 properties, NMR spectrum
   Ute Becker             : Parallelization
   Giovanni Bistoni       : ED, misc. LED, open-shell LED, HFLD
   Martin Brehm           : Molecular dynamics
   Dmytro Bykov           : SCF Hessian
   Vijay G. Chilkuri      : MRCI spin determinant printing, contributions to CSF-ICE
   Dipayan Datta          : RHF DLPNO-CCSD density
   Achintya Kumar Dutta   : EOM-CC, STEOM-CC
   Dmitry Ganyushin       : Spin-Orbit,Spin-Spin,Magnetic field MRCI
   Miquel Garcia          : C-PCM and meta-GGA Hessian, CC/C-PCM, Gaussian charge scheme
   Yang Guo               : DLPNO-NEVPT2, F12-NEVPT2, CIM, IAO-localization
   Andreas Hansen         : Spin unrestricted coupled pair/coupled cluster methods
   Benjamin Helmich-Paris : MC-RPA, TRAH-SCF, COSX integrals
   Lee Huntington         : MR-EOM, pCC
   Robert Izsak           : Overlap fitted RIJCOSX, COSX-SCS-MP3, EOM
   Marcus Kettner         : VPT2
   Christian Kollmar      : KDIIS, OOCD, Brueckner-CCSD(T), CCSD density, CASPT2, CASPT2-K
   Simone Kossmann        : Meta GGA functionals, TD-DFT gradient, OOMP2, MP2 Hessian
   Martin Krupicka        : Initial AUTO-CI
   Lucas Lang             : DCDCAS
   Marvin Lechner         : AUTO-CI (C++ implementation), FIC-MRCC
   Dagmar Lenk            : GEPOL surface, SMD
   Dimitrios Liakos       : Extrapolation schemes; Compound Job, initial MDCI parallelization
   Dimitrios Manganas     : Further ROCIS development; embedding schemes
   Dimitrios Pantazis     : SARC Basis sets
   Anastasios Papadopoulos: AUTO-CI, single reference methods and gradients
   Taras Petrenko         : DFT Hessian,TD-DFT gradient, ASA, ECA, R-Raman, ABS, FL, XAS/XES, NRVS
   Peter Pinski           : DLPNO-MP2, DLPNO-MP2 Gradient
   Christoph Reimann      : Effective Core Potentials
   Marius Retegan         : Local ZFS, SOC
   Christoph Riplinger    : Optimizer, TS searches, QM/MM, DLPNO-CCSD(T), (RO)-DLPNO pert. Triples
   Tobias Risthaus        : Range-separated hybrids, TD-DFT gradient, RPA, STAB
   Michael Roemelt        : Original ROCIS implementation
   Masaaki Saitow         : Open-shell DLPNO-CCSD energy and density
   Barbara Sandhoefer     : DKH picture change effects
   Avijit Sen             : IP-ROCIS
   Kantharuban Sivalingam : CASSCF convergence, NEVPT2, FIC-MRCI
   Bernardo de Souza      : ESD, SOC TD-DFT
   Georgi Stoychev        : AutoAux, RI-MP2 NMR, DLPNO-MP2 response
   Willem Van den Heuvel  : Paramagnetic NMR
   Boris Wezisla          : Elementary symmetry handling
   Frank Wennmohs         : Technical directorship


 We gratefully acknowledge several colleagues who have allowed us to
 interface, adapt or use parts of their codes:
   Stefan Grimme, W. Hujo, H. Kruse, P. Pracht,  : VdW corrections, initial TS optimization,
                  C. Bannwarth, S. Ehlert          DFT functionals, gCP, sTDA/sTD-DF
   Ed Valeev, F. Pavosevic, A. Kumar             : LibInt (2-el integral package), F12 methods
   Garnet Chan, S. Sharma, J. Yang, R. Olivares  : DMRG
   Ulf Ekstrom                                   : XCFun DFT Library
   Mihaly Kallay                                 : mrcc  (arbitrary order and MRCC methods)
   Jiri Pittner, Ondrej Demel                    : Mk-CCSD
   Frank Weinhold                                : gennbo (NPA and NBO analysis)
   Christopher J. Cramer and Donald G. Truhlar   : smd solvation model
   Lars Goerigk                                  : TD-DFT with DH, B97 family of functionals
   V. Asgeirsson, H. Jonsson                     : NEB implementation
   FAccTs GmbH                                   : IRC, NEB, NEB-TS, DLPNO-Multilevel, CI-OPT
                                                   MM, QMMM, 2- and 3-layer-ONIOM, Crystal-QMMM,
                                                   LR-CPCM, SF, NACMEs, symmetry and pop. for TD-DFT,
                                                   nearIR, NL-DFT gradient (VV10), updates on ESD,
                                                   ML-optimized integration grids
   S Lehtola, MJT Oliveira, MAL Marques          : LibXC Library
   Liviu Ungur et al                             : ANISO software


 Your calculation uses the libint2 library for the computation of 2-el integrals
 For citations please refer to: http://libint.valeyev.net

 Your ORCA version has been built with support for libXC version: 5.1.0
 For citations please refer to: https://tddft.org/programs/libxc/

 This ORCA versions uses:
   CBLAS   interface :  Fast vector & matrix operations
   LAPACKE interface :  Fast linear algebra routines
   SCALAPACK package :  Parallel linear algebra routines
   Shared memory     :  Shared parallel matrices
   BLAS/LAPACK       :  OpenBLAS 0.3.15  USE64BITINT DYNAMIC_ARCH NO_AFFINITY SkylakeX SINGLE_THREADED
        Core in use  :  SkylakeX
   Copyright (c) 2011-2014, The OpenBLAS Project


================================================================================

----- Orbital basis set information -----
Your calculation utilizes the basis: EPR-III
   V. Barone, in Recent Advances in Density Functional Methods, Part 1 (ed. D. P. Chong), World Scientific, Singapore, 1995, p. 287.
   N. Rega, M. Cossi and V. Barone, J. Chem. Phys. 105, 11060 (1996).

----- AuxJ basis set information -----
Your calculation utilizes the AutoAux generation procedure.
  G. L. Stoychev, A. A. Auer, F. Neese, J. Chem. Theory Comput. 13, 554 (2017)

----- AuxC basis set information -----
Your calculation utilizes the AutoAux generation procedure.
  G. L. Stoychev, A. A. Auer, F. Neese, J. Chem. Theory Comput. 13, 554 (2017)

----- AuxJK basis set information -----
Your calculation utilizes the AutoAux generation procedure.
  G. L. Stoychev, A. A. Auer, F. Neese, J. Chem. Theory Comput. 13, 554 (2017)

================================================================================
                                        WARNINGS
                       Please study these warnings very carefully!
================================================================================


WARNING: your system is open-shell and RHF/RKS was chosen
  ===> : WILL SWITCH to UHF/UKS


INFO   : the flag for use of the SHARK integral package has been found!

================================================================================
                                       INPUT FILE
================================================================================
NAME = /home/rwth0701/scratch/cs681498/orcajob__30556317-G3KY/8665.inp
|  1> !B3LYP EPR-III Autoaux
|  2> !PAL4
|  3> 
|  4> * xyz 0 2
|  5>  C    -28.5538900648    -47.1862179339    -17.7482978082
|  6>  H    -27.7081004527    -47.8636278545    -17.6398784500
|  7>  H    -28.5633266066    -46.1389699721    -17.7776294637
|  8>  H    -29.5267039124    -47.5923399391    -17.9763407051
|  9> *
| 10> 
| 11> %EPRNMR
| 12>         GTENSOR   TRUE
| 13>         NUCLEI    = ALL H {AISO, ADIP, AORB}
| 14>         NUCLEI    = ALL C {AISO, ADIP, AORB}
| 15> END
| 16> 
| 17> 
| 18>                          ****END OF INPUT****
================================================================================

                       ****************************
                       * Single Point Calculation *
                       ****************************

---------------------------------
CARTESIAN COORDINATES (ANGSTROEM)
---------------------------------
  C    -28.553890  -47.186218  -17.748298
  H    -27.708100  -47.863628  -17.639878
  H    -28.563327  -46.138970  -17.777629
  H    -29.526704  -47.592340  -17.976341

----------------------------
CARTESIAN COORDINATES (A.U.)
----------------------------
  NO LB      ZA    FRAG     MASS         X           Y           Z
   0 C     6.0000    0    12.011  -53.959032  -89.169029  -33.539422
   1 H     1.0000    0     1.008  -52.360722  -90.449148  -33.334539
   2 H     1.0000    0     1.008  -53.976865  -87.190017  -33.594851
   3 H     1.0000    0     1.008  -55.797384  -89.936489  -33.970361

--------------------------------
INTERNAL COORDINATES (ANGSTROEM)
--------------------------------
 C      0   0   0     0.000000000000     0.00000000     0.00000000
 H      1   0   0     1.089035823881     0.00000000     0.00000000
 H      1   2   0     1.047701144330   129.16386634     0.00000000
 H      1   2   3     1.078566376268   119.16482038   171.78413551

---------------------------
INTERNAL COORDINATES (A.U.)
---------------------------
 C      0   0   0     0.000000000000     0.00000000     0.00000000
 H      1   0   0     2.057979457164     0.00000000     0.00000000
 H      1   2   0     1.979868232979   129.16386634     0.00000000
 H      1   2   3     2.038195068403   119.16482038   171.78413551

---------------------
BASIS SET INFORMATION
---------------------
There are 2 groups of distinct atoms

 Group   1 Type C   : 12s8p2d1f contracted to 8s5p2d1f pattern {51111111/41111/11/1}
 Group   2 Type H   : 7s2p contracted to 5s2p pattern {31111/11}

Atom   0C    basis set group =>   1
Atom   1H    basis set group =>   2
Atom   2H    basis set group =>   2
Atom   3H    basis set group =>   2
---------------------------------
AUXILIARY/J BASIS SET INFORMATION
---------------------------------
There are 2 groups of distinct atoms

 Group   1 Type C   : 20s17p16d8f3g contracted to 20s17p16d8f3g pattern {11111111111111111111/11111111111111111/1111111111111111/11111111/111}
 Group   2 Type H   : 17s7p3d contracted to 17s7p3d pattern {11111111111111111/1111111/111}

Atom   0C    basis set group =>   1
Atom   1H    basis set group =>   2
Atom   2H    basis set group =>   2
Atom   3H    basis set group =>   2
---------------------------------
AUXILIARY/C BASIS SET INFORMATION
---------------------------------
There are 2 groups of distinct atoms

 Group   1 Type C   : 20s17p16d8f3g contracted to 20s17p16d8f3g pattern {11111111111111111111/11111111111111111/1111111111111111/11111111/111}
 Group   2 Type H   : 17s7p3d contracted to 17s7p3d pattern {11111111111111111/1111111/111}

Atom   0C    basis set group =>   1
Atom   1H    basis set group =>   2
Atom   2H    basis set group =>   2
Atom   3H    basis set group =>   2
----------------------------------
AUXILIARY/JK BASIS SET INFORMATION
----------------------------------
There are 2 groups of distinct atoms

 Group   1 Type C   : 20s17p16d8f3g contracted to 20s17p16d8f3g pattern {11111111111111111111/11111111111111111/1111111111111111/11111111/111}
 Group   2 Type H   : 17s7p3d contracted to 17s7p3d pattern {11111111111111111/1111111/111}

Atom   0C    basis set group =>   1
Atom   1H    basis set group =>   2
Atom   2H    basis set group =>   2
Atom   3H    basis set group =>   2


           ************************************************************
           *        Program running with 4 parallel MPI-processes     *
           *              working on a common directory               *
           ************************************************************
------------------------------------------------------------------------------
                           ORCA GTO INTEGRAL CALCULATION
                           -- RI-GTO INTEGRALS CHOSEN --
------------------------------------------------------------------------------
------------------------------------------------------------------------------
                   ___                                                        
                  /   \      - P O W E R E D   B Y -                         
                 /     \                                                     
                 |  |  |   _    _      __       _____    __    __             
                 |  |  |  | |  | |    /  \     |  _  \  |  |  /  |          
                  \  \/   | |  | |   /    \    | | | |  |  | /  /          
                 / \  \   | |__| |  /  /\  \   | |_| |  |  |/  /          
                |  |  |   |  __  | /  /__\  \  |    /   |      \           
                |  |  |   | |  | | |   __   |  |    \   |  |\   \          
                \     /   | |  | | |  |  |  |  | |\  \  |  | \   \       
                 \___/    |_|  |_| |__|  |__|  |_| \__\ |__|  \__/        
                                                                              
                      - O R C A' S   B I G   F R I E N D -                    
                                      &                                       
                       - I N T E G R A L  F E E D E R -                       
                                                                              
 v1 FN, 2020, v2 2021                                                         
------------------------------------------------------------------------------


Reading SHARK input file /home/rwth0701/scratch/cs681498/orcajob__30556317-G3KY/8665.SHARKINP.tmp ... ok
----------------------
SHARK INTEGRAL PACKAGE
----------------------

Number of atoms                             ...      4
Number of basis functions                   ...     73
Number of shells                            ...     37
Maximum angular momentum                    ...      3
Integral batch strategy                     ... SHARK/LIBINT Hybrid
RI-J (if used) integral strategy            ... SPLIT-RIJ (Revised 2003 algorithm where possible)
Printlevel                                  ...      1
Contraction scheme used                     ... SEGMENTED contraction
Coulomb Range Separation                    ... NOT USED
Exchange Range Separation                   ... NOT USED
Finite Nucleus Model                        ... NOT USED
Auxiliary Coulomb fitting basis             ... AVAILABLE
   # of basis functions in Aux-J            ...    393
   # of shells in Aux-J                     ...    145
   Maximum angular momentum in Aux-J        ...      4
Auxiliary J/K fitting basis                 ... AVAILABLE
   # of basis functions in Aux-JK           ...    393
   # of shells in Aux-JK                    ...    145
   Maximum angular momentum in Aux-JK       ...      4
Auxiliary Correlation fitting basis         ... AVAILABLE
   # of basis functions in Aux-C            ...    393
   # of shells in Aux-C                     ...    145
   Maximum angular momentum in Aux-C        ...      4
Auxiliary 'external' fitting basis          ... NOT available
Integral threshold                          ...     1.000000e-10
Primitive cut-off                           ...     1.000000e-11
Primitive pair pre-selection threshold      ...     1.000000e-11

Calculating pre-screening integrals         ... done (  0.0 sec) Dimension = 37
Organizing shell pair data                  ... done (  0.0 sec)
Shell pair information
Total number of shell pairs                 ...       703
Shell pairs after pre-screening             ...       688
Total number of primitive shell pairs       ...      1300
Primitive shell pairs kept                  ...      1183
          la=0 lb=0:    261 shell pairs
          la=1 lb=0:    253 shell pairs
          la=1 lb=1:     66 shell pairs
          la=2 lb=0:     46 shell pairs
          la=2 lb=1:     22 shell pairs
          la=2 lb=2:      3 shell pairs
          la=3 lb=0:     23 shell pairs
          la=3 lb=1:     11 shell pairs
          la=3 lb=2:      2 shell pairs
          la=3 lb=3:      1 shell pairs

Calculating one electron integrals          ... done (  0.0 sec)
Calculating RI/J V-Matrix + Cholesky decomp.... done (  0.1 sec)
Calculating RI/JK V-Matrix + Cholesky decomp... done (  0.1 sec)
Calculating RI/C V-Matrix + Cholesky decomp.... done (  0.1 sec)
Calculating Nuclear repulsion               ... done (  0.0 sec) ENN=      9.748582491707 Eh

SHARK setup successfully completed in   0.9 seconds

Maximum memory used throughout the entire GTOINT-calculation: 13.7 MB


           ************************************************************
           *        Program running with 4 parallel MPI-processes     *
           *              working on a common directory               *
           ************************************************************
-------------------------------------------------------------------------------
                                 ORCA SCF
-------------------------------------------------------------------------------

------------
SCF SETTINGS
------------
Hamiltonian:
 Density Functional     Method          .... DFT(GTOs)
 Exchange Functional    Exchange        .... B88
   X-Alpha parameter    XAlpha          ....  0.666667
   Becke's b parameter  XBeta           ....  0.004200
 Correlation Functional Correlation     .... LYP
 LDA part of GGA corr.  LDAOpt          .... VWN-5
 Gradients option       PostSCFGGA      .... off
 Hybrid DFT is turned on
   Fraction HF Exchange ScalHFX         ....  0.200000
   Scaling of DF-GGA-X  ScalDFX         ....  0.720000
   Scaling of DF-GGA-C  ScalDFC         ....  0.810000
   Scaling of DF-LDA-C  ScalLDAC        ....  1.000000
   Perturbative correction              ....  0.000000
   Density functional embedding theory  .... OFF
   NL short-range parameter             ....  4.800000
 RI-approximation to the Coulomb term is turned on
   Number of AuxJ basis functions       .... 393
   RIJ-COSX (HFX calculated with COS-X)).... on


General Settings:
 Integral files         IntName         .... /home/rwth0701/scratch/cs681498/orcajob__30556317-G3KY/8665
 Hartree-Fock type      HFTyp           .... UHF
 Total Charge           Charge          ....    0
 Multiplicity           Mult            ....    2
 Number of Electrons    NEL             ....    9
 Basis Dimension        Dim             ....   73
 Nuclear Repulsion      ENuc            ....      9.7485824917 Eh

Convergence Acceleration:
 DIIS                   CNVDIIS         .... on
   Start iteration      DIISMaxIt       ....    12
   Startup error        DIISStart       ....  0.200000
   # of expansion vecs  DIISMaxEq       ....     5
   Bias factor          DIISBfac        ....   1.050
   Max. coefficient     DIISMaxC        ....  10.000
 Trust-Rad. Augm. Hess. CNVTRAH         .... auto
   Auto Start mean grad. ratio tolernc. ....  1.125000
   Auto Start start iteration           ....    20
   Auto Start num. interpolation iter.  ....    10
   Max. Number of Micro iterations      ....    16
   Max. Number of Macro iterations      .... Maxiter - #DIIS iter
   Number of Davidson start vectors     ....     2
   Converg. threshold I  (grad. norm)   ....   5.000e-05
   Converg. threshold II (energy diff.) ....   1.000e-06
   Grad. Scal. Fac. for Micro threshold ....   0.100
   Minimum threshold for Micro iter.    ....   0.010
   NR start threshold (gradient norm)   ....   0.001
   Initial trust radius                 ....   0.400
   Minimum AH scaling param. (alpha)    ....   1.000
   Maximum AH scaling param. (alpha)    .... 1000.000
   Orbital update algorithm             .... Taylor
   White noise on init. David. guess    .... on
   Maximum white noise                  ....   0.010
   Quad. conv. algorithm                .... NR
 SOSCF                  CNVSOSCF        .... off
 Level Shifting         CNVShift        .... on
   Level shift para.    LevelShift      ....    0.2500
   Turn off err/grad.   ShiftErr        ....    0.0010
 Zerner damping         CNVZerner       .... off
 Static damping         CNVDamp         .... on
   Fraction old density DampFac         ....    0.7000
   Max. Damping (<1)    DampMax         ....    0.9800
   Min. Damping (>=0)   DampMin         ....    0.0000
   Turn off err/grad.   DampErr         ....    0.1000
 Fernandez-Rico         CNVRico         .... off

SCF Procedure:
 Maximum # iterations   MaxIter         ....   125
 SCF integral mode      SCFMode         .... Direct
   Integral package                     .... SHARK and LIBINT hybrid scheme
 Reset frequency        DirectResetFreq ....    20
 Integral Threshold     Thresh          ....  1.000e-10 Eh
 Primitive CutOff       TCut            ....  1.000e-11 Eh

Convergence Tolerance:
 Convergence Check Mode ConvCheckMode   .... Total+1el-Energy
 Convergence forced     ConvForced      .... 0
 Energy Change          TolE            ....  1.000e-06 Eh
 1-El. energy change                    ....  1.000e-03 Eh
 DIIS Error             TolErr          ....  1.000e-06


Diagonalization of the overlap matrix:
Smallest eigenvalue                        ... 1.523e-03
Time for diagonalization                   ...    0.001 sec
Threshold for overlap eigenvalues          ... 1.000e-08
Number of eigenvalues below threshold      ... 0
Time for construction of square roots      ...    0.007 sec
Total time needed                          ...    0.009 sec

Time for model grid setup =    0.071 sec

------------------------------
INITIAL GUESS: MODEL POTENTIAL
------------------------------
Loading Hartree-Fock densities                     ... done
Calculating cut-offs                               ... done
Initializing the effective Hamiltonian             ... done
Setting up the integral package (SHARK)            ... done
Starting the Coulomb interaction                   ... done (   0.1 sec)
Reading the grid                                   ... done
Mapping shells                                     ... done
Starting the XC term evaluation                    ... done (   0.0 sec)
  promolecular density results
     # of electrons  =      8.998476280
     EX              =     -5.974710411
     EC              =     -0.260669191
     EX+EC           =     -6.235379602
Transforming the Hamiltonian                       ... done (   0.0 sec)
Diagonalizing the Hamiltonian                      ... done (   0.0 sec)
Back transforming the eigenvectors                 ... done (   0.0 sec)
Now organizing SCF variables                       ... done
                      ------------------
                      INITIAL GUESS DONE (   0.2 sec)
                      ------------------
-------------------
DFT GRID GENERATION
-------------------

General Integration Accuracy     IntAcc      ... 4.388
Radial Grid Type                 RadialGrid  ... OptM3 with GC (2021)
Angular Grid (max. ang.)         AngularGrid ... 4 (Lebedev-302)
Angular grid pruning method      GridPruning ... 4 (adaptive)
Weight generation scheme         WeightScheme... Becke
Basis function cutoff            BFCut       ... 1.0000e-10
Integration weight cutoff        WCut        ... 1.0000e-14
Angular grids for H and He will be reduced by one unit
Partially contracted basis set               ... off
Rotationally invariant grid construction     ... off

Total number of grid points                  ...    17040
Total number of batches                      ...      269
Average number of points per batch           ...       63
Average number of grid points per atom       ...     4260
Time for grid setup =    0.191 sec

--------------------
COSX GRID GENERATION
--------------------

GRIDX 1
-------
General Integration Accuracy     IntAcc      ... 3.816
Radial Grid Type                 RadialGrid  ... OptM3 with GC (2021)
Angular Grid (max. ang.)         AngularGrid ... 1 (Lebedev-50)
Angular grid pruning method      GridPruning ... 4 (adaptive)
Weight generation scheme         WeightScheme... Becke
Basis function cutoff            BFCut       ... 1.0000e-10
Integration weight cutoff        WCut        ... 1.0000e-14
Angular grids for H and He will be reduced by one unit
Partially contracted basis set               ... on
Rotationally invariant grid construction     ... off

Total number of grid points                  ...     2141
Total number of batches                      ...       35
Average number of points per batch           ...       61
Average number of grid points per atom       ...      535
UseSFitting                                  ... on

GRIDX 2
-------
General Integration Accuracy     IntAcc      ... 4.020
Radial Grid Type                 RadialGrid  ... OptM3 with GC (2021)
Angular Grid (max. ang.)         AngularGrid ... 2 (Lebedev-110)
Angular grid pruning method      GridPruning ... 4 (adaptive)
Weight generation scheme         WeightScheme... Becke
Basis function cutoff            BFCut       ... 1.0000e-10
Integration weight cutoff        WCut        ... 1.0000e-14
Angular grids for H and He will be reduced by one unit
Partially contracted basis set               ... on
Rotationally invariant grid construction     ... off

Total number of grid points                  ...     5046
Total number of batches                      ...       82
Average number of points per batch           ...       61
Average number of grid points per atom       ...     1262
UseSFitting                                  ... on

GRIDX 3
-------
General Integration Accuracy     IntAcc      ... 4.338
Radial Grid Type                 RadialGrid  ... OptM3 with GC (2021)
Angular Grid (max. ang.)         AngularGrid ... 3 (Lebedev-194)
Angular grid pruning method      GridPruning ... 4 (adaptive)
Weight generation scheme         WeightScheme... Becke
Basis function cutoff            BFCut       ... 1.0000e-10
Integration weight cutoff        WCut        ... 1.0000e-14
Angular grids for H and He will be reduced by one unit
Partially contracted basis set               ... on
Rotationally invariant grid construction     ... off

Total number of grid points                  ...    11736
Total number of batches                      ...      186
Average number of points per batch           ...       63
Average number of grid points per atom       ...     2934
UseSFitting                                  ... on

Time for X-Grid setup             =    0.295 sec

--------------
SCF ITERATIONS
--------------
ITER       Energy         Delta-E        Max-DP      RMS-DP      [F,P]     Damp
               ***  Starting incremental Fock matrix formation  ***
  0    -39.7817621612   0.000000000000 0.01568315  0.00050917  0.0929187 0.7000
  1    -39.8013532045  -0.019591043319 0.00982354  0.00037949  0.0490358 0.7000
                               ***Turning on DIIS***
  2    -39.8100794104  -0.008726205906 0.01578625  0.00066318  0.0199832 0.0000
  3    -39.8220214920  -0.011942081601 0.00858135  0.00028498  0.0287188 0.0000
  4    -39.8256040170  -0.003582524976 0.00300340  0.00007956  0.0058985 0.0000
  5    -39.8257500882  -0.000146071182 0.00106655  0.00003260  0.0019314 0.0000
  6    -39.8257673528  -0.000017264646 0.00086865  0.00002464  0.0008029 0.0000
               *** Restarting incremental Fock matrix formation ***
                                   *** Resetting DIIS ***
  7    -39.8257778450  -0.000010492177 0.00008993  0.00000301  0.0000926 0.0000
                 **** Energy Check signals convergence ****

               *****************************************************
               *                     SUCCESS                       *
               *           SCF CONVERGED AFTER   8 CYCLES          *
               *****************************************************

Old exchange energy                            =     -1.243105279 Eh
New exchange energy                            =     -1.243104713 Eh
Exchange energy change after final integration =      0.000000566 Eh
Total energy after final integration           =    -39.825777357 Eh
Final COS-X integration done in                =     0.177 sec

----------------
TOTAL SCF ENERGY
----------------

Total Energy       :          -39.82577736 Eh           -1083.71450 eV

Components:
Nuclear Repulsion  :            9.74858249 Eh             265.27242 eV
Electronic Energy  :          -49.57435985 Eh           -1348.98691 eV
One Electron Energy:          -71.78640600 Eh           -1953.40742 eV
Two Electron Energy:           22.21204615 Eh             604.42050 eV
Max COSX asymmetry :            0.00000006 Eh               0.00000 eV

Virial components:
Potential Energy   :          -79.48428449 Eh           -2162.87734 eV
Kinetic Energy     :           39.65850713 Eh            1079.16284 eV
Virial Ratio       :            2.00421776


DFT components:
N(Alpha)           :        4.999999607199 electrons
N(Beta)            :        4.000000437576 electrons
N(Total)           :        9.000000044775 electrons
E(X)               :       -4.919535150934 Eh       
E(C)               :       -0.310085019188 Eh       
E(XC)              :       -5.229620170122 Eh       
DFET-embed. en.    :        0.000000000000 Eh       

---------------
SCF CONVERGENCE
---------------

  Last Energy change         ...   -7.7430e-08  Tolerance :   1.0000e-06
  Last MAX-Density change    ...    0.0000e+00  Tolerance :   1.0000e-05
  Last RMS-Density change    ...    0.0000e+00  Tolerance :   1.0000e-06
  Last DIIS Error            ...    6.6786e-05  Tolerance :   1.0000e-06

             **** THE GBW FILE WAS UPDATED (/home/rwth0701/scratch/cs681498/orcajob__30556317-G3KY/8665.gbw) ****
             **** DENSITY /home/rwth0701/scratch/cs681498/orcajob__30556317-G3KY/8665.scfp WAS UPDATED ****
             **** ENERGY FILE WAS UPDATED (/home/rwth0701/scratch/cs681498/orcajob__30556317-G3KY/8665.en.tmp) ****
----------------------
UHF SPIN CONTAMINATION
----------------------

Warning: in a DFT calculation there is little theoretical justification to 
         calculate <S**2> as in Hartree-Fock theory. We will do it anyways
         but you should keep in mind that the values have only limited relevance

Expectation value of <S**2>     :     0.753540
Ideal value S*(S+1) for S=0.5   :     0.750000
Deviation                       :     0.003540

             **** THE GBW FILE WAS UPDATED (/home/rwth0701/scratch/cs681498/orcajob__30556317-G3KY/8665.gbw) ****
             **** DENSITY /home/rwth0701/scratch/cs681498/orcajob__30556317-G3KY/8665.scfp WAS UPDATED ****
----------------
ORBITAL ENERGIES
----------------
                 SPIN UP ORBITALS
  NO   OCC          E(Eh)            E(eV) 
   0   1.0000     -10.181663      -277.0571 
   1   1.0000      -0.690591       -18.7919 
   2   1.0000      -0.438247       -11.9253 
   3   1.0000      -0.409789       -11.1509 
   4   1.0000      -0.235134        -6.3983 
   5   0.0000       0.001181         0.0321 
   6   0.0000       0.035165         0.9569 
   7   0.0000       0.038350         1.0436 
   8   0.0000       0.047522         1.2931 
   9   0.0000       0.086773         2.3612 
  10   0.0000       0.093112         2.5337 
  11   0.0000       0.101262         2.7555 
  12   0.0000       0.219144         5.9632 
  13   0.0000       0.225287         6.1304 
  14   0.0000       0.246979         6.7206 
  15   0.0000       0.276494         7.5238 
  16   0.0000       0.300873         8.1872 
  17   0.0000       0.319542         8.6952 
  18   0.0000       0.350567         9.5394 
  19   0.0000       0.549925        14.9642 
  20   0.0000       0.569741        15.5034 
  21   0.0000       0.730266        19.8715 
  22   0.0000       0.745020        20.2730 
  23   0.0000       0.767030        20.8720 
  24   0.0000       0.833231        22.6734 
  25   0.0000       0.882352        24.0100 
  26   0.0000       0.922025        25.0896 
  27   0.0000       0.936215        25.4757 
  28   0.0000       0.967767        26.3343 
  29   0.0000       1.051596        28.6154 
  30   0.0000       1.070090        29.1186 
  31   0.0000       1.120424        30.4883 
  32   0.0000       1.173860        31.9424 
  33   0.0000       1.177230        32.0341 
  34   0.0000       1.451956        39.5097 
  35   0.0000       1.487351        40.4729 
  36   0.0000       1.511028        41.1172 
  37   0.0000       1.714597        46.6565 
  38   0.0000       1.750088        47.6223 
  39   0.0000       1.756570        47.7987 
  40   0.0000       2.715887        73.9030 
  41   0.0000       2.730715        74.3065 
  42   0.0000       2.884912        78.5025 
  43   0.0000       2.890189        78.6460 
  44   0.0000       2.928449        79.6871 
  45   0.0000       2.973780        80.9207 
  46   0.0000       2.996468        81.5380 
  47   0.0000       3.152012        85.7706 
  48   0.0000       3.171362        86.2971 
  49   0.0000       3.246199        88.3336 
  50   0.0000       3.252284        88.4991 
  51   0.0000       3.700779       100.7033 
  52   0.0000       3.718339       101.1812 
  53   0.0000       3.843123       104.5767 
  54   0.0000       3.958585       107.7186 
  55   0.0000       3.978985       108.2737 
  56   0.0000       4.072592       110.8209 
  57   0.0000       4.159501       113.1858 
  58   0.0000       4.172286       113.5337 
  59   0.0000       4.196597       114.1952 
  60   0.0000       4.638475       126.2193 
  61   0.0000       5.026034       136.7653 
  62   0.0000       5.368088       146.0731 
  63   0.0000       5.502818       149.7393 
  64   0.0000       5.588630       152.0744 
  65   0.0000       6.093308       165.8073 
  66   0.0000       6.160238       167.6286 
  67   0.0000       7.779051       211.6787 
  68   0.0000      29.093328       791.6697 
  69   0.0000      37.160884      1011.1991 
  70   0.0000      37.214076      1012.6465 
  71   0.0000      37.234382      1013.1990 
  72   0.0000     133.555485      3634.2295 

                 SPIN DOWN ORBITALS
  NO   OCC          E(Eh)            E(eV) 
   0   1.0000     -10.167270      -276.6655 
   1   1.0000      -0.651383       -17.7250 
   2   1.0000      -0.428850       -11.6696 
   3   1.0000      -0.399952       -10.8832 
   4   0.0000      -0.077654        -2.1131 
   5   0.0000       0.004227         0.1150 
   6   0.0000       0.034813         0.9473 
   7   0.0000       0.037914         1.0317 
   8   0.0000       0.060738         1.6528 
   9   0.0000       0.088543         2.4094 
  10   0.0000       0.095519         2.5992 
  11   0.0000       0.103565         2.8181 
  12   0.0000       0.220483         5.9996 
  13   0.0000       0.226700         6.1688 
  14   0.0000       0.266196         7.2436 
  15   0.0000       0.306349         8.3362 
  16   0.0000       0.310851         8.4587 
  17   0.0000       0.325307         8.8521 
  18   0.0000       0.363530         9.8922 
  19   0.0000       0.576468        15.6865 
  20   0.0000       0.597553        16.2602 
  21   0.0000       0.732498        19.9323 
  22   0.0000       0.746519        20.3138 
  23   0.0000       0.792877        21.5753 
  24   0.0000       0.832077        22.6420 
  25   0.0000       0.887835        24.1592 
  26   0.0000       0.926151        25.2018 
  27   0.0000       0.953199        25.9379 
  28   0.0000       0.986924        26.8556 
  29   0.0000       1.079110        29.3641 
  30   0.0000       1.122519        30.5453 
  31   0.0000       1.142552        31.0904 
  32   0.0000       1.185546        32.2604 
  33   0.0000       1.191738        32.4288 
  34   0.0000       1.463900        39.8347 
  35   0.0000       1.505785        40.9745 
  36   0.0000       1.519803        41.3559 
  37   0.0000       1.719915        46.8013 
  38   0.0000       1.758060        47.8393 
  39   0.0000       1.763744        47.9939 
  40   0.0000       2.756202        75.0001 
  41   0.0000       2.771277        75.4103 
  42   0.0000       2.889354        78.6233 
  43   0.0000       2.915332        79.3302 
  44   0.0000       2.974186        80.9317 
  45   0.0000       2.992050        81.4178 
  46   0.0000       3.047811        82.9352 
  47   0.0000       3.201769        87.1246 
  48   0.0000       3.221648        87.6655 
  49   0.0000       3.302555        89.8671 
  50   0.0000       3.309889        90.0667 
  51   0.0000       3.706541       100.8601 
  52   0.0000       3.774876       102.7196 
  53   0.0000       3.841509       104.5328 
  54   0.0000       3.961367       107.7943 
  55   0.0000       3.993739       108.6752 
  56   0.0000       4.090898       111.3190 
  57   0.0000       4.163312       113.2895 
  58   0.0000       4.196126       114.1824 
  59   0.0000       4.199310       114.2690 
  60   0.0000       4.638823       126.2288 
  61   0.0000       5.049050       137.3916 
  62   0.0000       5.366768       146.0372 
  63   0.0000       5.500925       149.6878 
  64   0.0000       5.585711       151.9949 
  65   0.0000       6.097418       165.9192 
  66   0.0000       6.163309       167.7122 
  67   0.0000       7.814435       212.6416 
  68   0.0000      29.120158       792.3998 
  69   0.0000      37.149496      1010.8892 
  70   0.0000      37.202192      1012.3231 
  71   0.0000      37.223201      1012.8948 
  72   0.0000     133.563347      3634.4435 

                    ********************************
                    * MULLIKEN POPULATION ANALYSIS *
                    ********************************

--------------------------------------------
MULLIKEN ATOMIC CHARGES AND SPIN POPULATIONS
--------------------------------------------
   0 C :   -0.428712    1.101553
   1 H :    0.148379   -0.034012
   2 H :    0.146044   -0.032695
   3 H :    0.134289   -0.034847
Sum of atomic charges         :    0.0000000
Sum of atomic spin populations:    1.0000000

-----------------------------------------------------
MULLIKEN REDUCED ORBITAL CHARGES AND SPIN POPULATIONS
-----------------------------------------------------
CHARGE
  0 C s       :     3.325456  s :     3.325456
      pz      :     0.969775  p :     3.076065
      px      :     1.048249
      py      :     1.058041
      dz2     :     0.005192  d :     0.024117
      dxz     :     0.001163
      dyz     :     0.000293
      dx2y2   :     0.009341
      dxy     :     0.008129
      f0      :     0.000148  f :     0.003074
      f+1     :     0.000506
      f-1     :     0.000707
      f+2     :     0.000072
      f-2     :     0.000107
      f+3     :     0.000169
      f-3     :     0.001365
  1 H s       :     0.824594  s :     0.824594
      pz      :     0.010670  p :     0.027027
      px      :     0.008540
      py      :     0.007816
  2 H s       :     0.825250  s :     0.825250
      pz      :     0.011132  p :     0.028707
      px      :     0.007406
      py      :     0.010168
  3 H s       :     0.839289  s :     0.839289
      pz      :     0.010340  p :     0.026421
      px      :     0.009237
      py      :     0.006845

SPIN
  0 C s       :     0.068455  s :     0.068455
      pz      :     0.934279  p :     1.037452
      px      :     0.068010
      py      :     0.035162
      dz2     :    -0.004257  d :    -0.003009
      dxz     :    -0.000434
      dyz     :     0.000011
      dx2y2   :     0.000932
      dxy     :     0.000738
      f0      :    -0.000113  f :    -0.001345
      f+1     :    -0.000459
      f-1     :    -0.000615
      f+2     :    -0.000052
      f-2     :    -0.000049
      f+3     :    -0.000002
      f-3     :    -0.000055
  1 H s       :    -0.044547  s :    -0.044547
      pz      :     0.010449  p :     0.010536
      px      :     0.000169
      py      :    -0.000083
  2 H s       :    -0.043385  s :    -0.043385
      pz      :     0.010815  p :     0.010690
      px      :     0.000014
      py      :    -0.000139
  3 H s       :    -0.044461  s :    -0.044461
      pz      :     0.009855  p :     0.009614
      px      :     0.000250
      py      :    -0.000492


                     *******************************
                     * LOEWDIN POPULATION ANALYSIS *
                     *******************************

-------------------------------------------
LOEWDIN ATOMIC CHARGES AND SPIN POPULATIONS
-------------------------------------------
   0 C :   -0.142985    0.903656
   1 H :    0.057562    0.028948
   2 H :    0.035720    0.036108
   3 H :    0.049704    0.031288

----------------------------------------------------
LOEWDIN REDUCED ORBITAL CHARGES AND SPIN POPULATIONS
----------------------------------------------------
CHARGE
  0 C s       :     2.874367  s :     2.874367
      pz      :     0.878381  p :     3.169378
      px      :     1.137096
      py      :     1.153900
      dz2     :     0.006766  d :     0.091401
      dxz     :     0.002797
      dyz     :     0.001247
      dx2y2   :     0.041650
      dxy     :     0.038942
      f0      :     0.000529  f :     0.007840
      f+1     :     0.001406
      f-1     :     0.001947
      f+2     :     0.000297
      f-2     :     0.000277
      f+3     :     0.000512
      f-3     :     0.002870
  1 H s       :     0.801045  s :     0.801045
      pz      :     0.041235  p :     0.141393
      px      :     0.055221
      py      :     0.044937
  2 H s       :     0.807418  s :     0.807418
      pz      :     0.046275  p :     0.156862
      px      :     0.036861
      py      :     0.073726
  3 H s       :     0.803720  s :     0.803720
      pz      :     0.044255  p :     0.146577
      px      :     0.063516
      py      :     0.038806

SPIN
  0 C s       :     0.019563  s :     0.019563
      pz      :     0.839009  p :     0.892806
      px      :     0.041853
      py      :     0.011943
      dz2     :    -0.003655  d :    -0.007411
      dxz     :    -0.000507
      dyz     :    -0.000059
      dx2y2   :    -0.001601
      dxy     :    -0.001588
      f0      :     0.000046  f :    -0.001301
      f+1     :    -0.000384
      f-1     :    -0.000558
      f+2     :    -0.000054
      f-2     :    -0.000054
      f+3     :    -0.000035
      f-3     :    -0.000263
  1 H s       :    -0.017591  s :    -0.017591
      pz      :     0.039987  p :     0.046538
      px      :     0.004285
      py      :     0.002267
  2 H s       :    -0.015515  s :    -0.015515
      pz      :     0.044937  p :     0.051623
      px      :     0.002113
      py      :     0.004573
  3 H s       :    -0.016093  s :    -0.016093
      pz      :     0.041341  p :     0.047381
      px      :     0.005196
      py      :     0.000843


                      *****************************
                      * MAYER POPULATION ANALYSIS *
                      *****************************

  NA   - Mulliken gross atomic population
  ZA   - Total nuclear charge
  QA   - Mulliken gross atomic charge
  VA   - Mayer's total valence
  BVA  - Mayer's bonded valence
  FA   - Mayer's free valence

  ATOM       NA         ZA         QA         VA         BVA        FA
  0 C      6.4287     6.0000    -0.4287     3.8804     2.9367     0.9438
  1 H      0.8516     1.0000     0.1484     0.9869     0.9849     0.0020
  2 H      0.8540     1.0000     0.1460     0.9839     0.9820     0.0019
  3 H      0.8657     1.0000     0.1343     0.9810     0.9790     0.0020

  Mayer bond orders larger than 0.100000
B(  0-C ,  1-H ) :   0.9774 B(  0-C ,  2-H ) :   0.9791 B(  0-C ,  3-H ) :   0.9802 


-------
TIMINGS
-------

Total SCF time: 0 days 0 hours 0 min 5 sec 

Total time                  ....       5.804 sec
Sum of individual times     ....       5.011 sec  ( 86.3%)

Fock matrix formation       ....       4.075 sec  ( 70.2%)
  Split-RI-J                ....       0.484 sec  ( 11.9% of F)
  Chain of spheres X        ....       0.936 sec  ( 23.0% of F)
  XC integration            ....       1.547 sec  ( 38.0% of F)
    Basis function eval.    ....       0.113 sec  (  7.3% of XC)
    Density eval.           ....       0.100 sec  (  6.5% of XC)
    XC-Functional eval.     ....       0.091 sec  (  5.9% of XC)
    XC-Potential eval.      ....       0.157 sec  ( 10.1% of XC)
Diagonalization             ....       0.087 sec  (  1.5%)
Density matrix formation    ....       0.002 sec  (  0.0%)
Population analysis         ....       0.071 sec  (  1.2%)
Initial guess               ....       0.099 sec  (  1.7%)
Orbital Transformation      ....       0.000 sec  (  0.0%)
Orbital Orthonormalization  ....       0.000 sec  (  0.0%)
DIIS solution               ....       0.119 sec  (  2.1%)
Grid generation             ....       0.556 sec  (  9.6%)

Maximum memory used throughout the entire SCF-calculation: 59.0 MB

-------------------------   --------------------
FINAL SINGLE POINT ENERGY       -39.825777356803
-------------------------   --------------------

   --->>> g-tensor requested, so NeedSOC=true

                            ***************************************
                            *     ORCA property calculations      *
                            ***************************************

                                    ---------------------
                                    Active property flags
                                    ---------------------
   (+) Dipole Moment
   (+) g-tensor
   (+) Nuclear properties (Hyperfine,Quadrupole)
   (+) Spin-Orbit Integrals are needed


------------------------------------------------------------------------------
                       ORCA ELECTRIC PROPERTIES CALCULATION
------------------------------------------------------------------------------

Dipole Moment Calculation                       ... on
Quadrupole Moment Calculation                   ... off
Polarizability Calculation                      ... off
GBWName                                         ... /home/rwth0701/scratch/cs681498/orcajob__30556317-G3KY/8665.gbw
Electron density                                ... /home/rwth0701/scratch/cs681498/orcajob__30556317-G3KY/8665.scfp
The origin for moment calculation is the CENTER OF MASS  = (-53.976321, -89.173626 -33.558294)

-------------
DIPOLE MOMENT
-------------
                                X             Y             Z
Electronic contribution:      0.09379       0.02887       0.07489
Nuclear contribution   :     -0.10227      -0.02719      -0.11164
                        -----------------------------------------
Total Dipole Moment    :     -0.00849       0.00167      -0.03675
                        -----------------------------------------
Magnitude (a.u.)       :      0.03776
Magnitude (Debye)      :      0.09597



--------------------
Rotational spectrum 
--------------------
 
Rotational constants in cm-1:    10.880814     8.751238     4.861183 
Rotational constants in MHz : 326198.598234 262355.510589 145734.610464 

 Dipole components along the rotational axes: 
x,y,z [a.u.] :    -0.011584    -0.009920    -0.034541 
x,y,z [Debye]:    -0.029444    -0.025215    -0.087795 

 


           ************************************************************
           *        Program running with 4 parallel MPI-processes     *
           *              working on a common directory               *
           ************************************************************
------------------------------------------------------------------------------
                         ORCA SPIN-ORBIT COUPLING CALCULATION
------------------------------------------------------------------------------

GBW file                                    ... /home/rwth0701/scratch/cs681498/orcajob__30556317-G3KY/8665.gbw
Input density                               ... /home/rwth0701/scratch/cs681498/orcajob__30556317-G3KY/8665.scfp
Output integrals                            ... /home/rwth0701/scratch/cs681498/orcajob__30556317-G3KY/8665
Operator type                               ... Mean-field/Effective potential
   One-Electron Terms                       ... 1
   Coulomb Contribution                     ... 3
   Exchange Contribution                    ... 3
   Correlation Contribution                 ... 0
   Maximum number of centers                ... 4
SHARK 2-electron RIJ-SOMF                   ... done (  0.1 sec)
SHARK 1-electron  MaxCenter=4               ... done (  0.0 sec)
SHARK 2-electron DoJ,X=0,1 MaxCenter=1      ... done (  0.1 sec)

Maximum memory used throughout the entire SOC-calculation: 11.3 MB
Total time for SOC:  2.192


           ************************************************************
           *        Program running with 4 parallel MPI-processes     *
           *              working on a common directory               *
           ************************************************************
------------------------------------------------------------------------------
                                ORCA EPR/NMR CALCULATION
------------------------------------------------------------------------------

GBWName                      ... /home/rwth0701/scratch/cs681498/orcajob__30556317-G3KY/8665.gbw
Electron density             ... /home/rwth0701/scratch/cs681498/orcajob__30556317-G3KY/8665.scfp
Spin density                 ... /home/rwth0701/scratch/cs681498/orcajob__30556317-G3KY/8665.scfr
Spin-orbit integrals         ... /home/rwth0701/scratch/cs681498/orcajob__30556317-G3KY/8665
Treatment of gauge           ... GIAO (approximations 1/2el = 0,0)
Details of the CP(SCF) procedure:
       Solver   = POPLE   
       MaxIter  =    64   
       Tolerance=    1.000e-03
       COSX Grid=     1   
       Op-0     =   0-  4 =>   5- 72
       Op-1     =   0-  3 =>   4- 72
Multiplicity                 ... 2
g-tensor                     ... 1
NMR chemical shifts          ... 0
NMR spin-spin couplings      ... 0
NMR spectrum                 ... 0
Number of nuclei for epr/nmr ... 4
   Nucleus:   1H 
       Hyperfine : Isotope=    1 I=   0.500 P= 533.551
       Quadrupole: Isotope=    2 I=   1.000 Q=   0.003
       Spin-Orbit: Zeff=   1.000
       Nuclear Spin-Spin: Gn=   0.000
       EPRNMR Input: 
       rho(0)=N f(grad)=N a(iso)=Y a(dip)=Y a(orb)=Y sigma(nmr)=N spin-spin(nmr)=all-N,DSO-N,PSO-N,FC-N,SD-N
   Nucleus:   2H 
       Hyperfine : Isotope=    1 I=   0.500 P= 533.551
       Quadrupole: Isotope=    2 I=   1.000 Q=   0.003
       Spin-Orbit: Zeff=   1.000
       Nuclear Spin-Spin: Gn=   0.000
       EPRNMR Input: 
       rho(0)=N f(grad)=N a(iso)=Y a(dip)=Y a(orb)=Y sigma(nmr)=N spin-spin(nmr)=all-N,DSO-N,PSO-N,FC-N,SD-N
   Nucleus:   3H 
       Hyperfine : Isotope=    1 I=   0.500 P= 533.551
       Quadrupole: Isotope=    2 I=   1.000 Q=   0.003
       Spin-Orbit: Zeff=   1.000
       Nuclear Spin-Spin: Gn=   0.000
       EPRNMR Input: 
       rho(0)=N f(grad)=N a(iso)=Y a(dip)=Y a(orb)=Y sigma(nmr)=N spin-spin(nmr)=all-N,DSO-N,PSO-N,FC-N,SD-N
   Nucleus:   0C 
       Hyperfine : Isotope=   13 I=   0.500 P= 134.190
       Quadrupole: Isotope=   13 I=   0.500 Q=   0.000
       Spin-Orbit: Zeff=   3.600
       Nuclear Spin-Spin: Gn=   0.000
       EPRNMR Input: 
       rho(0)=N f(grad)=N a(iso)=Y a(dip)=Y a(orb)=Y sigma(nmr)=N spin-spin(nmr)=all-N,DSO-N,PSO-N,FC-N,SD-N
Forming RHS of the CP-SCF equations         ... 
Calculating right hand sides for GIAO treatment        ... 
  Entering RightHandSide GIAO. ScalHFX=    0.2000 NeedHFX=1
     -> 1-electron GIAO integrals will be done analytically
     -> RIJCOSX used in SCF. Same chosen for GIAO calculation.
     Making grid for GIAO integrations   ...

GRID GIAO
---------

General Integration Accuracy     IntAcc      ... 4.388
Radial Grid Type                 RadialGrid  ... OptM3 with GC (2021)
Angular Grid (max. ang.)         AngularGrid ... 4 (Lebedev-302)
Angular grid pruning method      GridPruning ... 4 (adaptive)
Weight generation scheme         WeightScheme... Becke
Basis function cutoff            BFCut       ... 1.0000e-10
Integration weight cutoff        WCut        ... 1.0000e-14
Angular grids for H and He will be reduced by one unit
Partially contracted basis set               ... off
Rotationally invariant grid construction     ... off

Total number of grid points                  ...    17040
Total number of batches                      ...      269
Average number of points per batch           ...       63
Average number of grid points per atom       ...     4260

  One-electron GIAO integrals (SHARK)     ... done
  Calculating G(B)[P]                     ... (RI-J: SHARK-ok) (COSX-ok) (add-J+K:ok) => dG/dB done
  DFT XC-terms                            ... done
  Extracting occupied and virtual blocks  ... 
  Operator  0  NO=   5 NV=  68 
  Operator  1  NO=   4 NV=  69 
  Transforming and RHS contribution       ... done
  Adding eps_i * S(B)_ai terms            ... done
  Projecting overlap derivatives          ... done
  Building G[dS/dB_ij] (COSX)             ... done
  Transforming to MO basis                ... done
  Summing G[dS/dB_ij] into RHS contribs.  ... done

  GIAO profiling information: 
    Total GIAO time               ...       0.8 sec
       GIAO 1-electron integrals  ...       0.0 sec (  0.4%)
       GIAO G(dS/dB) terms        ...       0.1 sec ( 11.8%)
       GIAO RI-J                  ...       0.1 sec ( 15.5%)
       GIAO COSX                  ...       0.1 sec ( 18.7%)
       GIAO XC-terms              ...       0.3 sec ( 37.2%)

  GIAO right hand side done


------------------------------------------------------------------------------
                           ORCA CP-SCF CALCULATION
------------------------------------------------------------------------------

Input orbitals are from        ... /home/rwth0701/scratch/cs681498/orcajob__30556317-G3KY/8665.gbw
Input Perturbation             ... /home/rwth0701/scratch/cs681498/orcajob__30556317-G3KY/8665.pin.tmp
Wavefunction output            ... /home/rwth0701/scratch/cs681498/orcajob__30556317-G3KY/8665.pout.tmp
Perturbation mode              ... Imaginary perturbation
Solver                         ... POPLE
Max. number of iterations      ... 64
Convergence tolerance          ... 1.000e-03
Integral handling              ... Direct
DFT GridXC                     ... 1
COSX GridX                     ... 1
COSX IntAccX                   ... 3.067
COSX Algorithm                 ... Auto
Number of perturbations        ... 3
Number of operators            ... 2
Orbital ranges used for CP-SCF:
 Operator 0:  Orbitals   0...  4  to   5... 72
 Operator 1:  Orbitals   0...  3  to   4... 72
Variables per perturbation     ... 616
DFT calculation                         ... on
XC functional terms                     ... off
Hybrid DFT                              ... on
   Exchange mixing (SCF)                ...  0.200
   Exchange mixing (CP-SCF)             ...  0.200
   GGA exch. scaling(SCF)               ...  0.720
   GGA exch. scaling (CP-SCF)           ...  0.720
   GGA corr. scaling (SCF)              ...  0.810
   GGA corr. scaling (CP-SCF)           ...  0.810

CP-SCF GRID
-----------

General Integration Accuracy     IntAcc      ... 3.467
Radial Grid Type                 RadialGrid  ... OptM3 with GC (2021)
Angular Grid (max. ang.)         AngularGrid ... 1 (Lebedev-50)
Angular grid pruning method      GridPruning ... 4 (adaptive)
Weight generation scheme         WeightScheme... Becke
Basis function cutoff            BFCut       ... 1.0000e-10
Integration weight cutoff        WCut        ... 1.0000e-14
Angular grids for H and He will be reduced by one unit
Partially contracted basis set               ... off
Rotationally invariant grid construction     ... off

Total number of grid points                  ...     2333
Total number of batches                      ...       38
Average number of points per batch           ...       61
Average number of grid points per atom       ...      583

CP-SCF GRIDX
------------

General Integration Accuracy     IntAcc      ... 3.067
Radial Grid Type                 RadialGrid  ... OptM3 with GC (2021)
Angular Grid (max. ang.)         AngularGrid ... 1 (Lebedev-50)
Angular grid pruning method      GridPruning ... 4 (adaptive)
Weight generation scheme         WeightScheme... Becke
Basis function cutoff            BFCut       ... 1.0000e-10
Integration weight cutoff        WCut        ... 1.0000e-14
Angular grids for H and He will be reduced by one unit
Partially contracted basis set               ... on
Rotationally invariant grid construction     ... off

Total number of grid points                  ...     1071
Total number of batches                      ...       20
Average number of points per batch           ...       53
Average number of grid points per atom       ...      268

Memory available               ... 1014.6 MB
Memory needed per perturbation ...   0.4 MB
Perturbations treated per batch... 3
Number of batches              ... 1
     CP-SCF ITERATION   0:   4.6404e+00 (   0.1 sec   0/  3 done)
     CP-SCF ITERATION   1:   3.6676e-02 (   0.1 sec   0/  3 done)
     CP-SCF ITERATION   2:   2.6684e-03 (   0.1 sec   0/  3 done)
     CP-SCF ITERATION   3:   2.1401e-04 (   0.1 sec   3/  3 done)
                    *** THE CP-SCF HAS CONVERGED ***

Forming final perturbed densities           ... done
Transforming perturbed density to AO basis  ... done

Magnetic field perturbation calculated in  1.251 sec
GIAO: Diamagnetic terms      (analytic)     (SHARK) ... done
GIAO: 1el-Paramagnetic terms (analytic)     (SHARK) ... done

-------------------
ELECTRONIC G-MATRIX
-------------------

 The g-matrix: 
              2.0029010   -0.0000176    0.0001238
             -0.0000265    2.0029155    0.0000036
              0.0000999   -0.0000261    2.0022529

 gel          2.0023193    2.0023193    2.0023193
 gRMC        -0.0001266   -0.0001266   -0.0001266
 gDSO(tot)    0.0000343    0.0000708    0.0000711
 gPSO(tot)    0.0000070    0.0006305    0.0006775
             ----------   ----------   ----------
 g(tot)       2.0022340    2.0028940    2.0029414 iso=  2.0026898
 Delta-g     -0.0000853    0.0005747    0.0006221 iso=  0.0003705
 Orientation: 
  X          -0.1650154   -0.6671008    0.7264616
  Y           0.0109432   -0.7377521   -0.6749830
  Z           0.9862303   -0.1034327    0.1290407

Notes:  (1) The g-matrix conforms to the "BgS" spin Hamiltonian convention. 
        (2) The principal values are square roots of the eigenvalues of g*gT.
        (3) Orientations are eigenvectors of g*gT written as column vectors.
        (4) Individual contributions are projections of the full matrices onto the eigenvectors of g*gT.
        (5) Tensor is right-handed.


-----------------------------------------
ELECTRIC AND MAGNETIC HYPERFINE STRUCTURE
-----------------------------------------

 -----------------------------------------------------------
 Nucleus   1H : A:ISTP=    1 I=  0.5 P=533.5514 MHz/au**3
                Q:ISTP=    2 I=  1.0 Q=  0.0029 barn     
 -----------------------------------------------------------
 Solving for nuclear perturbation:
Forming RHS of the CP-SCF equations         ... 
Calc. nucleus orbit integrals (SHARK)       ... done

------------------------------------------------------------------------------
                           ORCA CP-SCF CALCULATION
------------------------------------------------------------------------------

Input orbitals are from        ... /home/rwth0701/scratch/cs681498/orcajob__30556317-G3KY/8665.gbw
Input Perturbation             ... /home/rwth0701/scratch/cs681498/orcajob__30556317-G3KY/8665.pin.tmp
Wavefunction output            ... /home/rwth0701/scratch/cs681498/orcajob__30556317-G3KY/8665.pout.tmp
Perturbation mode              ... Imaginary perturbation
Solver                         ... POPLE
Max. number of iterations      ... 64
Convergence tolerance          ... 1.000e-03
Integral handling              ... Direct
DFT GridXC                     ... 1
COSX GridX                     ... 1
COSX IntAccX                   ... 3.067
COSX Algorithm                 ... Auto
Number of perturbations        ... 3
Number of operators            ... 2
Orbital ranges used for CP-SCF:
 Operator 0:  Orbitals   0...  4  to   5... 72
 Operator 1:  Orbitals   0...  3  to   4... 72
Variables per perturbation     ... 616
DFT calculation                         ... on
XC functional terms                     ... off
Hybrid DFT                              ... on
   Exchange mixing (SCF)                ...  0.200
   Exchange mixing (CP-SCF)             ...  0.200
   GGA exch. scaling(SCF)               ...  0.720
   GGA exch. scaling (CP-SCF)           ...  0.720
   GGA corr. scaling (SCF)              ...  0.810
   GGA corr. scaling (CP-SCF)           ...  0.810

CP-SCF GRID
-----------

General Integration Accuracy     IntAcc      ... 3.467
Radial Grid Type                 RadialGrid  ... OptM3 with GC (2021)
Angular Grid (max. ang.)         AngularGrid ... 1 (Lebedev-50)
Angular grid pruning method      GridPruning ... 4 (adaptive)
Weight generation scheme         WeightScheme... Becke
Basis function cutoff            BFCut       ... 1.0000e-10
Integration weight cutoff        WCut        ... 1.0000e-14
Angular grids for H and He will be reduced by one unit
Partially contracted basis set               ... off
Rotationally invariant grid construction     ... off

Total number of grid points                  ...     2333
Total number of batches                      ...       38
Average number of points per batch           ...       61
Average number of grid points per atom       ...      583

CP-SCF GRIDX
------------

General Integration Accuracy     IntAcc      ... 3.067
Radial Grid Type                 RadialGrid  ... OptM3 with GC (2021)
Angular Grid (max. ang.)         AngularGrid ... 1 (Lebedev-50)
Angular grid pruning method      GridPruning ... 4 (adaptive)
Weight generation scheme         WeightScheme... Becke
Basis function cutoff            BFCut       ... 1.0000e-10
Integration weight cutoff        WCut        ... 1.0000e-14
Angular grids for H and He will be reduced by one unit
Partially contracted basis set               ... on
Rotationally invariant grid construction     ... off

Total number of grid points                  ...     1071
Total number of batches                      ...       20
Average number of points per batch           ...       53
Average number of grid points per atom       ...      268

Memory available               ... 968.0 MB
Memory needed per perturbation ...   0.4 MB
Perturbations treated per batch... 3
Number of batches              ... 1
     CP-SCF ITERATION   0:   6.4118e-02 (   0.1 sec   0/  3 done)
     CP-SCF ITERATION   1:   2.7029e-03 (   0.1 sec   0/  3 done)
     CP-SCF ITERATION   2:   2.3202e-04 (   0.1 sec   3/  3 done)
                    *** THE CP-SCF HAS CONVERGED ***

Forming final perturbed densities           ... done
Transforming perturbed density to AO basis  ... done

 Raw HFC matrix (all values in MHz): 
 -----------------------------------
               -58.2440             -37.0754              -0.2141
               -37.0746             -75.7733              -6.0505
                -0.2141              -6.0506             -66.3291

 A(FC)         -66.7965             -66.7965             -66.7965
 A(SD)          38.2139               0.7315             -38.9454
 A(ORB+DIA)      0.0142              -0.0007               0.0297    A(PC) =   0.0144
 A(ORB)          0.0094               0.0005               0.0283    A(PC) =   0.0127
 A(DIA)          0.0048              -0.0011               0.0014    A(PC) =   0.0017
             ----------           ----------           ----------
 A(Tot)        -28.5684             -66.0658            -105.7123    A(iso)=  -66.7821
 Orientation: 
  X           0.7768840            0.1513427            0.6111846
  Y          -0.6223870            0.0376345            0.7818044
  Z           0.0953187           -0.9877647            0.1234313

Notes:  (1) The A matrix conforms to the "SAI" spin Hamiltonian convention.
        (2) Tensor is right-handed.

 -----------------------------------------------------------
 Nucleus   2H : A:ISTP=    1 I=  0.5 P=533.5514 MHz/au**3
                Q:ISTP=    2 I=  1.0 Q=  0.0029 barn     
 -----------------------------------------------------------
 Solving for nuclear perturbation:
Forming RHS of the CP-SCF equations         ... 
Calc. nucleus orbit integrals (SHARK)       ... done

------------------------------------------------------------------------------
                           ORCA CP-SCF CALCULATION
------------------------------------------------------------------------------

Input orbitals are from        ... /home/rwth0701/scratch/cs681498/orcajob__30556317-G3KY/8665.gbw
Input Perturbation             ... /home/rwth0701/scratch/cs681498/orcajob__30556317-G3KY/8665.pin.tmp
Wavefunction output            ... /home/rwth0701/scratch/cs681498/orcajob__30556317-G3KY/8665.pout.tmp
Perturbation mode              ... Imaginary perturbation
Solver                         ... POPLE
Max. number of iterations      ... 64
Convergence tolerance          ... 1.000e-03
Integral handling              ... Direct
DFT GridXC                     ... 1
COSX GridX                     ... 1
COSX IntAccX                   ... 3.067
COSX Algorithm                 ... Auto
Number of perturbations        ... 3
Number of operators            ... 2
Orbital ranges used for CP-SCF:
 Operator 0:  Orbitals   0...  4  to   5... 72
 Operator 1:  Orbitals   0...  3  to   4... 72
Variables per perturbation     ... 616
DFT calculation                         ... on
XC functional terms                     ... off
Hybrid DFT                              ... on
   Exchange mixing (SCF)                ...  0.200
   Exchange mixing (CP-SCF)             ...  0.200
   GGA exch. scaling(SCF)               ...  0.720
   GGA exch. scaling (CP-SCF)           ...  0.720
   GGA corr. scaling (SCF)              ...  0.810
   GGA corr. scaling (CP-SCF)           ...  0.810

CP-SCF GRID
-----------

General Integration Accuracy     IntAcc      ... 3.467
Radial Grid Type                 RadialGrid  ... OptM3 with GC (2021)
Angular Grid (max. ang.)         AngularGrid ... 1 (Lebedev-50)
Angular grid pruning method      GridPruning ... 4 (adaptive)
Weight generation scheme         WeightScheme... Becke
Basis function cutoff            BFCut       ... 1.0000e-10
Integration weight cutoff        WCut        ... 1.0000e-14
Angular grids for H and He will be reduced by one unit
Partially contracted basis set               ... off
Rotationally invariant grid construction     ... off

Total number of grid points                  ...     2333
Total number of batches                      ...       38
Average number of points per batch           ...       61
Average number of grid points per atom       ...      583

CP-SCF GRIDX
------------

General Integration Accuracy     IntAcc      ... 3.067
Radial Grid Type                 RadialGrid  ... OptM3 with GC (2021)
Angular Grid (max. ang.)         AngularGrid ... 1 (Lebedev-50)
Angular grid pruning method      GridPruning ... 4 (adaptive)
Weight generation scheme         WeightScheme... Becke
Basis function cutoff            BFCut       ... 1.0000e-10
Integration weight cutoff        WCut        ... 1.0000e-14
Angular grids for H and He will be reduced by one unit
Partially contracted basis set               ... on
Rotationally invariant grid construction     ... off

Total number of grid points                  ...     1071
Total number of batches                      ...       20
Average number of points per batch           ...       53
Average number of grid points per atom       ...      268

Memory available               ... 967.8 MB
Memory needed per perturbation ...   0.4 MB
Perturbations treated per batch... 3
Number of batches              ... 1
     CP-SCF ITERATION   0:   7.3971e-02 (   0.1 sec   0/  3 done)
     CP-SCF ITERATION   1:   2.7264e-03 (   0.1 sec   1/  3 done)
     CP-SCF ITERATION   2:   1.8830e-04 (   0.1 sec   3/  3 done)
                    *** THE CP-SCF HAS CONVERGED ***

Forming final perturbed densities           ... done
Transforming perturbed density to AO basis  ... done

 Raw HFC matrix (all values in MHz): 
 -----------------------------------
              -104.2041              -0.9537              -8.0983
                -0.9530             -24.1213              -1.3892
                -8.0983              -1.3894             -62.0768

 A(FC)         -63.4826             -63.4826             -63.4826
 A(SD)          39.4036               2.8707             -42.2743
 A(ORB+DIA)      0.0140              -0.0006               0.0323    A(PC) =   0.0152
 A(ORB)          0.0087               0.0006               0.0307    A(PC) =   0.0133
 A(DIA)          0.0053              -0.0012               0.0016    A(PC) =   0.0019
             ----------           ----------           ----------
 A(Tot)        -24.0650             -60.6126            -105.7246    A(iso)=  -63.4674
 Orientation: 
  X           0.0083829            0.1832445            0.9830316
  Y          -0.9993614           -0.0326140            0.0146016
  Z           0.0347363           -0.9825262            0.1828541

Notes:  (1) The A matrix conforms to the "SAI" spin Hamiltonian convention.
        (2) Tensor is right-handed.

 -----------------------------------------------------------
 Nucleus   3H : A:ISTP=    1 I=  0.5 P=533.5514 MHz/au**3
                Q:ISTP=    2 I=  1.0 Q=  0.0029 barn     
 -----------------------------------------------------------
 Solving for nuclear perturbation:
Forming RHS of the CP-SCF equations         ... 
Calc. nucleus orbit integrals (SHARK)       ... done

------------------------------------------------------------------------------
                           ORCA CP-SCF CALCULATION
------------------------------------------------------------------------------

Input orbitals are from        ... /home/rwth0701/scratch/cs681498/orcajob__30556317-G3KY/8665.gbw
Input Perturbation             ... /home/rwth0701/scratch/cs681498/orcajob__30556317-G3KY/8665.pin.tmp
Wavefunction output            ... /home/rwth0701/scratch/cs681498/orcajob__30556317-G3KY/8665.pout.tmp
Perturbation mode              ... Imaginary perturbation
Solver                         ... POPLE
Max. number of iterations      ... 64
Convergence tolerance          ... 1.000e-03
Integral handling              ... Direct
DFT GridXC                     ... 1
COSX GridX                     ... 1
COSX IntAccX                   ... 3.067
COSX Algorithm                 ... Auto
Number of perturbations        ... 3
Number of operators            ... 2
Orbital ranges used for CP-SCF:
 Operator 0:  Orbitals   0...  4  to   5... 72
 Operator 1:  Orbitals   0...  3  to   4... 72
Variables per perturbation     ... 616
DFT calculation                         ... on
XC functional terms                     ... off
Hybrid DFT                              ... on
   Exchange mixing (SCF)                ...  0.200
   Exchange mixing (CP-SCF)             ...  0.200
   GGA exch. scaling(SCF)               ...  0.720
   GGA exch. scaling (CP-SCF)           ...  0.720
   GGA corr. scaling (SCF)              ...  0.810
   GGA corr. scaling (CP-SCF)           ...  0.810

CP-SCF GRID
-----------

General Integration Accuracy     IntAcc      ... 3.467
Radial Grid Type                 RadialGrid  ... OptM3 with GC (2021)
Angular Grid (max. ang.)         AngularGrid ... 1 (Lebedev-50)
Angular grid pruning method      GridPruning ... 4 (adaptive)
Weight generation scheme         WeightScheme... Becke
Basis function cutoff            BFCut       ... 1.0000e-10
Integration weight cutoff        WCut        ... 1.0000e-14
Angular grids for H and He will be reduced by one unit
Partially contracted basis set               ... off
Rotationally invariant grid construction     ... off

Total number of grid points                  ...     2333
Total number of batches                      ...       38
Average number of points per batch           ...       61
Average number of grid points per atom       ...      583

CP-SCF GRIDX
------------

General Integration Accuracy     IntAcc      ... 3.067
Radial Grid Type                 RadialGrid  ... OptM3 with GC (2021)
Angular Grid (max. ang.)         AngularGrid ... 1 (Lebedev-50)
Angular grid pruning method      GridPruning ... 4 (adaptive)
Weight generation scheme         WeightScheme... Becke
Basis function cutoff            BFCut       ... 1.0000e-10
Integration weight cutoff        WCut        ... 1.0000e-14
Angular grids for H and He will be reduced by one unit
Partially contracted basis set               ... on
Rotationally invariant grid construction     ... off

Total number of grid points                  ...     1071
Total number of batches                      ...       20
Average number of points per batch           ...       53
Average number of grid points per atom       ...      268

Memory available               ... 967.7 MB
Memory needed per perturbation ...   0.4 MB
Perturbations treated per batch... 3
Number of batches              ... 1
     CP-SCF ITERATION   0:   6.0328e-02 (   0.1 sec   0/  3 done)
     CP-SCF ITERATION   1:   2.1994e-03 (   0.1 sec   0/  3 done)
     CP-SCF ITERATION   2:   1.9203e-04 (   0.1 sec   3/  3 done)
                    *** THE CP-SCF HAS CONVERGED ***

Forming final perturbed densities           ... done
Transforming perturbed density to AO basis  ... done

 Raw HFC matrix (all values in MHz): 
 -----------------------------------
               -36.1377              26.8214               6.5090
                26.8206             -90.5766               5.2891
                 6.5090               5.2893             -58.8539

 A(FC)         -61.8712             -61.8712             -61.8712
 A(SD)          38.5312               1.3399             -39.8711
 A(ORB+DIA)      0.0144              -0.0007               0.0318    A(PC) =   0.0152
 A(ORB)          0.0095               0.0005               0.0303    A(PC) =   0.0134
 A(DIA)          0.0050              -0.0011               0.0015    A(PC) =   0.0018
             ----------           ----------           ----------
 A(Tot)        -23.3256             -60.5321            -101.7105    A(iso)=  -61.8561
 Orientation: 
  X           0.8998152           -0.2262006            0.3730495
  Y           0.3762368           -0.0305382           -0.9260202
  Z           0.2208585            0.9736019            0.0576263

Notes:  (1) The A matrix conforms to the "SAI" spin Hamiltonian convention.
        (2) Tensor is right-handed.

 -----------------------------------------------------------
 Nucleus   0C : A:ISTP=   13 I=  0.5 P=134.1903 MHz/au**3
                Q:ISTP=   13 I=  0.5 Q=  0.0000 barn     
 -----------------------------------------------------------
 Solving for nuclear perturbation:
Forming RHS of the CP-SCF equations         ... 
Calc. nucleus orbit integrals (SHARK)       ... done

------------------------------------------------------------------------------
                           ORCA CP-SCF CALCULATION
------------------------------------------------------------------------------

Input orbitals are from        ... /home/rwth0701/scratch/cs681498/orcajob__30556317-G3KY/8665.gbw
Input Perturbation             ... /home/rwth0701/scratch/cs681498/orcajob__30556317-G3KY/8665.pin.tmp
Wavefunction output            ... /home/rwth0701/scratch/cs681498/orcajob__30556317-G3KY/8665.pout.tmp
Perturbation mode              ... Imaginary perturbation
Solver                         ... POPLE
Max. number of iterations      ... 64
Convergence tolerance          ... 1.000e-03
Integral handling              ... Direct
DFT GridXC                     ... 1
COSX GridX                     ... 1
COSX IntAccX                   ... 3.067
COSX Algorithm                 ... Auto
Number of perturbations        ... 3
Number of operators            ... 2
Orbital ranges used for CP-SCF:
 Operator 0:  Orbitals   0...  4  to   5... 72
 Operator 1:  Orbitals   0...  3  to   4... 72
Variables per perturbation     ... 616
DFT calculation                         ... on
XC functional terms                     ... off
Hybrid DFT                              ... on
   Exchange mixing (SCF)                ...  0.200
   Exchange mixing (CP-SCF)             ...  0.200
   GGA exch. scaling(SCF)               ...  0.720
   GGA exch. scaling (CP-SCF)           ...  0.720
   GGA corr. scaling (SCF)              ...  0.810
   GGA corr. scaling (CP-SCF)           ...  0.810

CP-SCF GRID
-----------

General Integration Accuracy     IntAcc      ... 3.467
Radial Grid Type                 RadialGrid  ... OptM3 with GC (2021)
Angular Grid (max. ang.)         AngularGrid ... 1 (Lebedev-50)
Angular grid pruning method      GridPruning ... 4 (adaptive)
Weight generation scheme         WeightScheme... Becke
Basis function cutoff            BFCut       ... 1.0000e-10
Integration weight cutoff        WCut        ... 1.0000e-14
Angular grids for H and He will be reduced by one unit
Partially contracted basis set               ... off
Rotationally invariant grid construction     ... off

Total number of grid points                  ...     2333
Total number of batches                      ...       38
Average number of points per batch           ...       61
Average number of grid points per atom       ...      583

CP-SCF GRIDX
------------

General Integration Accuracy     IntAcc      ... 3.067
Radial Grid Type                 RadialGrid  ... OptM3 with GC (2021)
Angular Grid (max. ang.)         AngularGrid ... 1 (Lebedev-50)
Angular grid pruning method      GridPruning ... 4 (adaptive)
Weight generation scheme         WeightScheme... Becke
Basis function cutoff            BFCut       ... 1.0000e-10
Integration weight cutoff        WCut        ... 1.0000e-14
Angular grids for H and He will be reduced by one unit
Partially contracted basis set               ... on
Rotationally invariant grid construction     ... off

Total number of grid points                  ...     1071
Total number of batches                      ...       20
Average number of points per batch           ...       53
Average number of grid points per atom       ...      268

Memory available               ... 967.6 MB
Memory needed per perturbation ...   0.4 MB
Perturbations treated per batch... 3
Number of batches              ... 1
     CP-SCF ITERATION   0:   1.1161e+00 (   0.1 sec   0/  3 done)
     CP-SCF ITERATION   1:   4.1769e-02 (   0.1 sec   0/  3 done)
     CP-SCF ITERATION   2:   3.0779e-03 (   0.1 sec   0/  3 done)
     CP-SCF ITERATION   3:   1.8221e-04 (   0.1 sec   3/  3 done)
                    *** THE CP-SCF HAS CONVERGED ***

Forming final perturbed densities           ... done
Transforming perturbed density to AO basis  ... done

 Raw HFC matrix (all values in MHz): 
 -----------------------------------
                10.9024               0.8173             -43.5046
                 0.8174               2.3502              -2.8768
               -43.5046              -2.8769             234.9880

 A(FC)          82.8588              82.8588              82.8588
 A(SD)         -80.5173             -79.8104             160.3277
 A(ORB+DIA)     -0.1594              -0.1644              -0.0120    A(PC) =  -0.1119
 A(ORB)         -0.1598              -0.1648              -0.0119    A(PC) =  -0.1122
 A(DIA)          0.0004               0.0004              -0.0001    A(PC) =   0.0002
             ----------           ----------           ----------
 A(Tot)          2.1821               2.8840             243.1746    A(iso)=   82.7469
 Orientation: 
  X           0.4271615            0.8852290           -0.1841266
  Y          -0.9015629            0.4324713           -0.0123656
  Z           0.0686831            0.1712838            0.9828248

Notes:  (1) The A matrix conforms to the "SAI" spin Hamiltonian convention.
        (2) Tensor is right-handed.


--------------------------------------------------------------------------------
----------------------------------------------------------------------------
                           ORCA EULER ANGLE PROGRAM
----------------------------------------------------------------------------

Only g-tensor available        -->  using g-tensor as reference tensor

Reference tensor               ...  g

g-tensor ordering              ...  |g_min> --> |gx>
                                    |g_mid> --> |gy>
                                    |g_max> --> |gz>

A- and EFG-tensor ordering     ...  the axes |Ax>, |Qx>, |Ay>, etc. are assigned
                                    such that the Euler rotation is minimal. You
                                    can find the respective eigenvalues as Ax,
                                    EFGx, Ay, etc. in the tables below.
                                    The relation of |Ax>, |Ay>,  etc. to Amin, Amid, etc.
                                    (as printed in the ORCA EPR/NMR CALCULATION Output)
                                    is obtained in the detailed printout.

Euler rotation around          ...  z - y - z
   First rotation              -->  by alpha around z
   Second rotation             -->  by beta around y'
   Third rotation              -->  by gamma around z''
   Positive / Negative angle   -->  clockwise / counterclockwise rotation

Plot EFG-tensors                    (-)
Plot HFC-tensors                    (-)
Detailed Printout                   (-)

-------------------------------------------------------------------------
          Euler rotation of hyperfine tensor to g-tensor
-------------------------------------------------------------------------

-------------------------------------------------------------------
 Atom  |   Alpha    Beta    Gamma   |   Ax       Ay       Az 
       |          [degrees]         |           [MHz]         
-------------------------------------------------------------------
  1H       57.7      4.6    -59.3     -66.07  -105.71   -28.57
  2H       92.4     43.3    -91.5     -60.61   -24.06  -105.72
  3H      -92.4     25.4     88.0     -60.53   -23.33  -101.71
  0C      -89.8     21.9     88.1     243.17     2.88     2.18
-------------------------------------------------------------------


Maximum memory used throughout the entire EPRNMR-calculation: 67.6 MB

Timings for individual modules:

Sum of individual times         ...       20.483 sec (=   0.341 min)
GTO integral calculation        ...        3.928 sec (=   0.065 min)  19.2 %
Spin-Orbit-Coupling Matrices    ...        2.185 sec (=   0.036 min)  10.7 %
SCF iterations                  ...        8.264 sec (=   0.138 min)  40.3 %
EPR/NMR calculation             ...        6.107 sec (=   0.102 min)  29.8 %
                             ****ORCA TERMINATED NORMALLY****
TOTAL RUN TIME: 0 days 0 hours 0 minutes 23 seconds 110 msec
