Job execution start: Mon Oct 24 16:40:27 CEST 2022
Shared library path: /home/cs681498/orca:/opt/MPI/openmpi-4.1.1/linux/gcc_4.8.5/lib:/opt/MPI/openmpi-4.1.1/linux/gcc_4.8.5/lib/lib32
Slurm Job ID is: 30556094
Slurm Job name is: 301
ncm1009

                                 *****************
                                 * O   R   C   A *
                                 *****************

                                            #,                                       
                                            ###                                      
                                            ####                                     
                                            #####                                    
                                            ######                                   
                                           ########,                                 
                                     ,,################,,,,,                         
                               ,,#################################,,                 
                          ,,##########################################,,             
                       ,#########################################, ''#####,          
                    ,#############################################,,   '####,        
                  ,##################################################,,,,####,       
                ,###########''''           ''''###############################       
              ,#####''   ,,,,##########,,,,          '''####'''          '####       
            ,##' ,,,,###########################,,,                        '##       
           ' ,,###''''                  '''############,,,                           
         ,,##''                                '''############,,,,        ,,,,,,###''
      ,#''                                            '''#######################'''  
     '                                                          ''''####''''         
             ,#######,   #######,   ,#######,      ##                                
            ,#'     '#,  ##    ##  ,#'     '#,    #''#        ######   ,####,        
            ##       ##  ##   ,#'  ##            #'  '#       #        #'  '#        
            ##       ##  #######   ##           ,######,      #####,   #    #        
            '#,     ,#'  ##    ##  '#,     ,#' ,#      #,         ##   #,  ,#        
             '#######'   ##     ##  '#######'  #'      '#     #####' # '####'        



                  #######################################################
                  #                        -***-                        #
                  #          Department of theory and spectroscopy      #
                  #    Directorship and core code : Frank Neese         #
                  #        Max Planck Institute fuer Kohlenforschung    #
                  #                Kaiser Wilhelm Platz 1               #
                  #                 D-45470 Muelheim/Ruhr               #
                  #                      Germany                        #
                  #                                                     #
                  #                  All rights reserved                #
                  #                        -***-                        #
                  #######################################################


                         Program Version 5.0.3 -  RELEASE  -


 With contributions from (in alphabetic order):
   Daniel Aravena         : Magnetic Suceptibility
   Michael Atanasov       : Ab Initio Ligand Field Theory (pilot matlab implementation)
   Alexander A. Auer      : GIAO ZORA, VPT2 properties, NMR spectrum
   Ute Becker             : Parallelization
   Giovanni Bistoni       : ED, misc. LED, open-shell LED, HFLD
   Martin Brehm           : Molecular dynamics
   Dmytro Bykov           : SCF Hessian
   Vijay G. Chilkuri      : MRCI spin determinant printing, contributions to CSF-ICE
   Dipayan Datta          : RHF DLPNO-CCSD density
   Achintya Kumar Dutta   : EOM-CC, STEOM-CC
   Dmitry Ganyushin       : Spin-Orbit,Spin-Spin,Magnetic field MRCI
   Miquel Garcia          : C-PCM and meta-GGA Hessian, CC/C-PCM, Gaussian charge scheme
   Yang Guo               : DLPNO-NEVPT2, F12-NEVPT2, CIM, IAO-localization
   Andreas Hansen         : Spin unrestricted coupled pair/coupled cluster methods
   Benjamin Helmich-Paris : MC-RPA, TRAH-SCF, COSX integrals
   Lee Huntington         : MR-EOM, pCC
   Robert Izsak           : Overlap fitted RIJCOSX, COSX-SCS-MP3, EOM
   Marcus Kettner         : VPT2
   Christian Kollmar      : KDIIS, OOCD, Brueckner-CCSD(T), CCSD density, CASPT2, CASPT2-K
   Simone Kossmann        : Meta GGA functionals, TD-DFT gradient, OOMP2, MP2 Hessian
   Martin Krupicka        : Initial AUTO-CI
   Lucas Lang             : DCDCAS
   Marvin Lechner         : AUTO-CI (C++ implementation), FIC-MRCC
   Dagmar Lenk            : GEPOL surface, SMD
   Dimitrios Liakos       : Extrapolation schemes; Compound Job, initial MDCI parallelization
   Dimitrios Manganas     : Further ROCIS development; embedding schemes
   Dimitrios Pantazis     : SARC Basis sets
   Anastasios Papadopoulos: AUTO-CI, single reference methods and gradients
   Taras Petrenko         : DFT Hessian,TD-DFT gradient, ASA, ECA, R-Raman, ABS, FL, XAS/XES, NRVS
   Peter Pinski           : DLPNO-MP2, DLPNO-MP2 Gradient
   Christoph Reimann      : Effective Core Potentials
   Marius Retegan         : Local ZFS, SOC
   Christoph Riplinger    : Optimizer, TS searches, QM/MM, DLPNO-CCSD(T), (RO)-DLPNO pert. Triples
   Tobias Risthaus        : Range-separated hybrids, TD-DFT gradient, RPA, STAB
   Michael Roemelt        : Original ROCIS implementation
   Masaaki Saitow         : Open-shell DLPNO-CCSD energy and density
   Barbara Sandhoefer     : DKH picture change effects
   Avijit Sen             : IP-ROCIS
   Kantharuban Sivalingam : CASSCF convergence, NEVPT2, FIC-MRCI
   Bernardo de Souza      : ESD, SOC TD-DFT
   Georgi Stoychev        : AutoAux, RI-MP2 NMR, DLPNO-MP2 response
   Willem Van den Heuvel  : Paramagnetic NMR
   Boris Wezisla          : Elementary symmetry handling
   Frank Wennmohs         : Technical directorship


 We gratefully acknowledge several colleagues who have allowed us to
 interface, adapt or use parts of their codes:
   Stefan Grimme, W. Hujo, H. Kruse, P. Pracht,  : VdW corrections, initial TS optimization,
                  C. Bannwarth, S. Ehlert          DFT functionals, gCP, sTDA/sTD-DF
   Ed Valeev, F. Pavosevic, A. Kumar             : LibInt (2-el integral package), F12 methods
   Garnet Chan, S. Sharma, J. Yang, R. Olivares  : DMRG
   Ulf Ekstrom                                   : XCFun DFT Library
   Mihaly Kallay                                 : mrcc  (arbitrary order and MRCC methods)
   Jiri Pittner, Ondrej Demel                    : Mk-CCSD
   Frank Weinhold                                : gennbo (NPA and NBO analysis)
   Christopher J. Cramer and Donald G. Truhlar   : smd solvation model
   Lars Goerigk                                  : TD-DFT with DH, B97 family of functionals
   V. Asgeirsson, H. Jonsson                     : NEB implementation
   FAccTs GmbH                                   : IRC, NEB, NEB-TS, DLPNO-Multilevel, CI-OPT
                                                   MM, QMMM, 2- and 3-layer-ONIOM, Crystal-QMMM,
                                                   LR-CPCM, SF, NACMEs, symmetry and pop. for TD-DFT,
                                                   nearIR, NL-DFT gradient (VV10), updates on ESD,
                                                   ML-optimized integration grids
   S Lehtola, MJT Oliveira, MAL Marques          : LibXC Library
   Liviu Ungur et al                             : ANISO software


 Your calculation uses the libint2 library for the computation of 2-el integrals
 For citations please refer to: http://libint.valeyev.net

 Your ORCA version has been built with support for libXC version: 5.1.0
 For citations please refer to: https://tddft.org/programs/libxc/

 This ORCA versions uses:
   CBLAS   interface :  Fast vector & matrix operations
   LAPACKE interface :  Fast linear algebra routines
   SCALAPACK package :  Parallel linear algebra routines
   Shared memory     :  Shared parallel matrices
   BLAS/LAPACK       :  OpenBLAS 0.3.15  USE64BITINT DYNAMIC_ARCH NO_AFFINITY SkylakeX SINGLE_THREADED
        Core in use  :  SkylakeX
   Copyright (c) 2011-2014, The OpenBLAS Project


================================================================================

----- Orbital basis set information -----
Your calculation utilizes the basis: EPR-III
   V. Barone, in Recent Advances in Density Functional Methods, Part 1 (ed. D. P. Chong), World Scientific, Singapore, 1995, p. 287.
   N. Rega, M. Cossi and V. Barone, J. Chem. Phys. 105, 11060 (1996).

----- AuxJ basis set information -----
Your calculation utilizes the AutoAux generation procedure.
  G. L. Stoychev, A. A. Auer, F. Neese, J. Chem. Theory Comput. 13, 554 (2017)

----- AuxC basis set information -----
Your calculation utilizes the AutoAux generation procedure.
  G. L. Stoychev, A. A. Auer, F. Neese, J. Chem. Theory Comput. 13, 554 (2017)

----- AuxJK basis set information -----
Your calculation utilizes the AutoAux generation procedure.
  G. L. Stoychev, A. A. Auer, F. Neese, J. Chem. Theory Comput. 13, 554 (2017)

================================================================================
                                        WARNINGS
                       Please study these warnings very carefully!
================================================================================


WARNING: your system is open-shell and RHF/RKS was chosen
  ===> : WILL SWITCH to UHF/UKS


INFO   : the flag for use of the SHARK integral package has been found!

================================================================================
                                       INPUT FILE
================================================================================
NAME = /home/rwth0701/scratch/cs681498/orcajob__30556094-BEmE/301.inp
|  1> !B3LYP EPR-III Autoaux
|  2> !PAL4
|  3> 
|  4> * xyz 0 2
|  5>  C     11.8089623098     -1.4977146448     -7.3621181458
|  6>  H     10.7918205564     -1.0104505890     -7.3077908499
|  7>  H     12.0318702917     -2.1944617158     -6.6004925001
|  8>  H     12.3907688363     -1.4555694319     -8.2752106378
|  9> *
| 10> 
| 11> %EPRNMR
| 12>         GTENSOR   TRUE
| 13>         NUCLEI    = ALL H {AISO, ADIP, AORB}
| 14>         NUCLEI    = ALL C {AISO, ADIP, AORB}
| 15> END
| 16> 
| 17> 
| 18>                          ****END OF INPUT****
================================================================================

                       ****************************
                       * Single Point Calculation *
                       ****************************

---------------------------------
CARTESIAN COORDINATES (ANGSTROEM)
---------------------------------
  C     11.808962   -1.497715   -7.362118
  H     10.791821   -1.010451   -7.307791
  H     12.031870   -2.194462   -6.600493
  H     12.390769   -1.455569   -8.275211

----------------------------
CARTESIAN COORDINATES (A.U.)
----------------------------
  NO LB      ZA    FRAG     MASS         X           Y           Z
   0 C     6.0000    0    12.011   22.315705   -2.830271  -13.912387
   1 H     1.0000    0     1.008   20.393585   -1.909475  -13.809723
   2 H     1.0000    0     1.008   22.736940   -4.146932  -12.473123
   3 H     1.0000    0     1.008   23.415160   -2.750628  -15.637882

--------------------------------
INTERNAL COORDINATES (ANGSTROEM)
--------------------------------
 C      0   0   0     0.000000000000     0.00000000     0.00000000
 H      1   0   0     1.129139079859     0.00000000     0.00000000
 H      1   2   0     1.056038859858   116.11400901     0.00000000
 H      1   2   3     1.083518782576   120.49485015   163.92321926

---------------------------
INTERNAL COORDINATES (A.U.)
---------------------------
 C      0   0   0     0.000000000000     0.00000000     0.00000000
 H      1   0   0     2.133763628041     0.00000000     0.00000000
 H      1   2   0     1.995624231910   116.11400901     0.00000000
 H      1   2   3     2.047553760029   120.49485015   163.92321926

---------------------
BASIS SET INFORMATION
---------------------
There are 2 groups of distinct atoms

 Group   1 Type C   : 12s8p2d1f contracted to 8s5p2d1f pattern {51111111/41111/11/1}
 Group   2 Type H   : 7s2p contracted to 5s2p pattern {31111/11}

Atom   0C    basis set group =>   1
Atom   1H    basis set group =>   2
Atom   2H    basis set group =>   2
Atom   3H    basis set group =>   2
---------------------------------
AUXILIARY/J BASIS SET INFORMATION
---------------------------------
There are 2 groups of distinct atoms

 Group   1 Type C   : 20s17p16d8f3g contracted to 20s17p16d8f3g pattern {11111111111111111111/11111111111111111/1111111111111111/11111111/111}
 Group   2 Type H   : 17s7p3d contracted to 17s7p3d pattern {11111111111111111/1111111/111}

Atom   0C    basis set group =>   1
Atom   1H    basis set group =>   2
Atom   2H    basis set group =>   2
Atom   3H    basis set group =>   2
---------------------------------
AUXILIARY/C BASIS SET INFORMATION
---------------------------------
There are 2 groups of distinct atoms

 Group   1 Type C   : 20s17p16d8f3g contracted to 20s17p16d8f3g pattern {11111111111111111111/11111111111111111/1111111111111111/11111111/111}
 Group   2 Type H   : 17s7p3d contracted to 17s7p3d pattern {11111111111111111/1111111/111}

Atom   0C    basis set group =>   1
Atom   1H    basis set group =>   2
Atom   2H    basis set group =>   2
Atom   3H    basis set group =>   2
----------------------------------
AUXILIARY/JK BASIS SET INFORMATION
----------------------------------
There are 2 groups of distinct atoms

 Group   1 Type C   : 20s17p16d8f3g contracted to 20s17p16d8f3g pattern {11111111111111111111/11111111111111111/1111111111111111/11111111/111}
 Group   2 Type H   : 17s7p3d contracted to 17s7p3d pattern {11111111111111111/1111111/111}

Atom   0C    basis set group =>   1
Atom   1H    basis set group =>   2
Atom   2H    basis set group =>   2
Atom   3H    basis set group =>   2


           ************************************************************
           *        Program running with 4 parallel MPI-processes     *
           *              working on a common directory               *
           ************************************************************
------------------------------------------------------------------------------
                           ORCA GTO INTEGRAL CALCULATION
                           -- RI-GTO INTEGRALS CHOSEN --
------------------------------------------------------------------------------
------------------------------------------------------------------------------
                   ___                                                        
                  /   \      - P O W E R E D   B Y -                         
                 /     \                                                     
                 |  |  |   _    _      __       _____    __    __             
                 |  |  |  | |  | |    /  \     |  _  \  |  |  /  |          
                  \  \/   | |  | |   /    \    | | | |  |  | /  /          
                 / \  \   | |__| |  /  /\  \   | |_| |  |  |/  /          
                |  |  |   |  __  | /  /__\  \  |    /   |      \           
                |  |  |   | |  | | |   __   |  |    \   |  |\   \          
                \     /   | |  | | |  |  |  |  | |\  \  |  | \   \       
                 \___/    |_|  |_| |__|  |__|  |_| \__\ |__|  \__/        
                                                                              
                      - O R C A' S   B I G   F R I E N D -                    
                                      &                                       
                       - I N T E G R A L  F E E D E R -                       
                                                                              
 v1 FN, 2020, v2 2021                                                         
------------------------------------------------------------------------------


Reading SHARK input file /home/rwth0701/scratch/cs681498/orcajob__30556094-BEmE/301.SHARKINP.tmp ... ok
----------------------
SHARK INTEGRAL PACKAGE
----------------------

Number of atoms                             ...      4
Number of basis functions                   ...     73
Number of shells                            ...     37
Maximum angular momentum                    ...      3
Integral batch strategy                     ... SHARK/LIBINT Hybrid
RI-J (if used) integral strategy            ... SPLIT-RIJ (Revised 2003 algorithm where possible)
Printlevel                                  ...      1
Contraction scheme used                     ... SEGMENTED contraction
Coulomb Range Separation                    ... NOT USED
Exchange Range Separation                   ... NOT USED
Finite Nucleus Model                        ... NOT USED
Auxiliary Coulomb fitting basis             ... AVAILABLE
   # of basis functions in Aux-J            ...    393
   # of shells in Aux-J                     ...    145
   Maximum angular momentum in Aux-J        ...      4
Auxiliary J/K fitting basis                 ... AVAILABLE
   # of basis functions in Aux-JK           ...    393
   # of shells in Aux-JK                    ...    145
   Maximum angular momentum in Aux-JK       ...      4
Auxiliary Correlation fitting basis         ... AVAILABLE
   # of basis functions in Aux-C            ...    393
   # of shells in Aux-C                     ...    145
   Maximum angular momentum in Aux-C        ...      4
Auxiliary 'external' fitting basis          ... NOT available
Integral threshold                          ...     1.000000e-10
Primitive cut-off                           ...     1.000000e-11
Primitive pair pre-selection threshold      ...     1.000000e-11

Calculating pre-screening integrals         ... done (  0.0 sec) Dimension = 37
Organizing shell pair data                  ... done (  0.0 sec)
Shell pair information
Total number of shell pairs                 ...       703
Shell pairs after pre-screening             ...       688
Total number of primitive shell pairs       ...      1300
Primitive shell pairs kept                  ...      1183
          la=0 lb=0:    261 shell pairs
          la=1 lb=0:    253 shell pairs
          la=1 lb=1:     66 shell pairs
          la=2 lb=0:     46 shell pairs
          la=2 lb=1:     22 shell pairs
          la=2 lb=2:      3 shell pairs
          la=3 lb=0:     23 shell pairs
          la=3 lb=1:     11 shell pairs
          la=3 lb=2:      2 shell pairs
          la=3 lb=3:      1 shell pairs

Calculating one electron integrals          ... done (  0.0 sec)
Calculating RI/J V-Matrix + Cholesky decomp.... done (  0.1 sec)
Calculating RI/JK V-Matrix + Cholesky decomp... done (  0.1 sec)
Calculating RI/C V-Matrix + Cholesky decomp.... done (  0.1 sec)
Calculating Nuclear repulsion               ... done (  0.0 sec) ENN=      9.593300096560 Eh

SHARK setup successfully completed in   0.8 seconds

Maximum memory used throughout the entire GTOINT-calculation: 13.7 MB


           ************************************************************
           *        Program running with 4 parallel MPI-processes     *
           *              working on a common directory               *
           ************************************************************
-------------------------------------------------------------------------------
                                 ORCA SCF
-------------------------------------------------------------------------------

------------
SCF SETTINGS
------------
Hamiltonian:
 Density Functional     Method          .... DFT(GTOs)
 Exchange Functional    Exchange        .... B88
   X-Alpha parameter    XAlpha          ....  0.666667
   Becke's b parameter  XBeta           ....  0.004200
 Correlation Functional Correlation     .... LYP
 LDA part of GGA corr.  LDAOpt          .... VWN-5
 Gradients option       PostSCFGGA      .... off
 Hybrid DFT is turned on
   Fraction HF Exchange ScalHFX         ....  0.200000
   Scaling of DF-GGA-X  ScalDFX         ....  0.720000
   Scaling of DF-GGA-C  ScalDFC         ....  0.810000
   Scaling of DF-LDA-C  ScalLDAC        ....  1.000000
   Perturbative correction              ....  0.000000
   Density functional embedding theory  .... OFF
   NL short-range parameter             ....  4.800000
 RI-approximation to the Coulomb term is turned on
   Number of AuxJ basis functions       .... 393
   RIJ-COSX (HFX calculated with COS-X)).... on


General Settings:
 Integral files         IntName         .... /home/rwth0701/scratch/cs681498/orcajob__30556094-BEmE/301
 Hartree-Fock type      HFTyp           .... UHF
 Total Charge           Charge          ....    0
 Multiplicity           Mult            ....    2
 Number of Electrons    NEL             ....    9
 Basis Dimension        Dim             ....   73
 Nuclear Repulsion      ENuc            ....      9.5933000966 Eh

Convergence Acceleration:
 DIIS                   CNVDIIS         .... on
   Start iteration      DIISMaxIt       ....    12
   Startup error        DIISStart       ....  0.200000
   # of expansion vecs  DIISMaxEq       ....     5
   Bias factor          DIISBfac        ....   1.050
   Max. coefficient     DIISMaxC        ....  10.000
 Trust-Rad. Augm. Hess. CNVTRAH         .... auto
   Auto Start mean grad. ratio tolernc. ....  1.125000
   Auto Start start iteration           ....    20
   Auto Start num. interpolation iter.  ....    10
   Max. Number of Micro iterations      ....    16
   Max. Number of Macro iterations      .... Maxiter - #DIIS iter
   Number of Davidson start vectors     ....     2
   Converg. threshold I  (grad. norm)   ....   5.000e-05
   Converg. threshold II (energy diff.) ....   1.000e-06
   Grad. Scal. Fac. for Micro threshold ....   0.100
   Minimum threshold for Micro iter.    ....   0.010
   NR start threshold (gradient norm)   ....   0.001
   Initial trust radius                 ....   0.400
   Minimum AH scaling param. (alpha)    ....   1.000
   Maximum AH scaling param. (alpha)    .... 1000.000
   Orbital update algorithm             .... Taylor
   White noise on init. David. guess    .... on
   Maximum white noise                  ....   0.010
   Quad. conv. algorithm                .... NR
 SOSCF                  CNVSOSCF        .... off
 Level Shifting         CNVShift        .... on
   Level shift para.    LevelShift      ....    0.2500
   Turn off err/grad.   ShiftErr        ....    0.0010
 Zerner damping         CNVZerner       .... off
 Static damping         CNVDamp         .... on
   Fraction old density DampFac         ....    0.7000
   Max. Damping (<1)    DampMax         ....    0.9800
   Min. Damping (>=0)   DampMin         ....    0.0000
   Turn off err/grad.   DampErr         ....    0.1000
 Fernandez-Rico         CNVRico         .... off

SCF Procedure:
 Maximum # iterations   MaxIter         ....   125
 SCF integral mode      SCFMode         .... Direct
   Integral package                     .... SHARK and LIBINT hybrid scheme
 Reset frequency        DirectResetFreq ....    20
 Integral Threshold     Thresh          ....  1.000e-10 Eh
 Primitive CutOff       TCut            ....  1.000e-11 Eh

Convergence Tolerance:
 Convergence Check Mode ConvCheckMode   .... Total+1el-Energy
 Convergence forced     ConvForced      .... 0
 Energy Change          TolE            ....  1.000e-06 Eh
 1-El. energy change                    ....  1.000e-03 Eh
 DIIS Error             TolErr          ....  1.000e-06


Diagonalization of the overlap matrix:
Smallest eigenvalue                        ... 1.634e-03
Time for diagonalization                   ...    0.001 sec
Threshold for overlap eigenvalues          ... 1.000e-08
Number of eigenvalues below threshold      ... 0
Time for construction of square roots      ...    0.009 sec
Total time needed                          ...    0.011 sec

Time for model grid setup =    0.102 sec

------------------------------
INITIAL GUESS: MODEL POTENTIAL
------------------------------
Loading Hartree-Fock densities                     ... done
Calculating cut-offs                               ... done
Initializing the effective Hamiltonian             ... done
Setting up the integral package (SHARK)            ... done
Starting the Coulomb interaction                   ... done (   0.1 sec)
Reading the grid                                   ... done
Mapping shells                                     ... done
Starting the XC term evaluation                    ... done (   0.0 sec)
  promolecular density results
     # of electrons  =      8.998970598
     EX              =     -5.966611882
     EC              =     -0.260031589
     EX+EC           =     -6.226643470
Transforming the Hamiltonian                       ... done (   0.0 sec)
Diagonalizing the Hamiltonian                      ... done (   0.0 sec)
Back transforming the eigenvectors                 ... done (   0.0 sec)
Now organizing SCF variables                       ... done
                      ------------------
                      INITIAL GUESS DONE (   0.2 sec)
                      ------------------
-------------------
DFT GRID GENERATION
-------------------

General Integration Accuracy     IntAcc      ... 4.388
Radial Grid Type                 RadialGrid  ... OptM3 with GC (2021)
Angular Grid (max. ang.)         AngularGrid ... 4 (Lebedev-302)
Angular grid pruning method      GridPruning ... 4 (adaptive)
Weight generation scheme         WeightScheme... Becke
Basis function cutoff            BFCut       ... 1.0000e-10
Integration weight cutoff        WCut        ... 1.0000e-14
Angular grids for H and He will be reduced by one unit
Partially contracted basis set               ... off
Rotationally invariant grid construction     ... off

Total number of grid points                  ...    17066
Total number of batches                      ...      269
Average number of points per batch           ...       63
Average number of grid points per atom       ...     4266
Time for grid setup =    0.157 sec

--------------------
COSX GRID GENERATION
--------------------

GRIDX 1
-------
General Integration Accuracy     IntAcc      ... 3.816
Radial Grid Type                 RadialGrid  ... OptM3 with GC (2021)
Angular Grid (max. ang.)         AngularGrid ... 1 (Lebedev-50)
Angular grid pruning method      GridPruning ... 4 (adaptive)
Weight generation scheme         WeightScheme... Becke
Basis function cutoff            BFCut       ... 1.0000e-10
Integration weight cutoff        WCut        ... 1.0000e-14
Angular grids for H and He will be reduced by one unit
Partially contracted basis set               ... on
Rotationally invariant grid construction     ... off

Total number of grid points                  ...     2155
Total number of batches                      ...       35
Average number of points per batch           ...       61
Average number of grid points per atom       ...      539
UseSFitting                                  ... on

GRIDX 2
-------
General Integration Accuracy     IntAcc      ... 4.020
Radial Grid Type                 RadialGrid  ... OptM3 with GC (2021)
Angular Grid (max. ang.)         AngularGrid ... 2 (Lebedev-110)
Angular grid pruning method      GridPruning ... 4 (adaptive)
Weight generation scheme         WeightScheme... Becke
Basis function cutoff            BFCut       ... 1.0000e-10
Integration weight cutoff        WCut        ... 1.0000e-14
Angular grids for H and He will be reduced by one unit
Partially contracted basis set               ... on
Rotationally invariant grid construction     ... off

Total number of grid points                  ...     5038
Total number of batches                      ...       81
Average number of points per batch           ...       62
Average number of grid points per atom       ...     1260
UseSFitting                                  ... on

GRIDX 3
-------
General Integration Accuracy     IntAcc      ... 4.338
Radial Grid Type                 RadialGrid  ... OptM3 with GC (2021)
Angular Grid (max. ang.)         AngularGrid ... 3 (Lebedev-194)
Angular grid pruning method      GridPruning ... 4 (adaptive)
Weight generation scheme         WeightScheme... Becke
Basis function cutoff            BFCut       ... 1.0000e-10
Integration weight cutoff        WCut        ... 1.0000e-14
Angular grids for H and He will be reduced by one unit
Partially contracted basis set               ... on
Rotationally invariant grid construction     ... off

Total number of grid points                  ...    11745
Total number of batches                      ...      185
Average number of points per batch           ...       63
Average number of grid points per atom       ...     2936
UseSFitting                                  ... on

Time for X-Grid setup             =    0.252 sec

--------------
SCF ITERATIONS
--------------
ITER       Energy         Delta-E        Max-DP      RMS-DP      [F,P]     Damp
               ***  Starting incremental Fock matrix formation  ***
  0    -39.7855690572   0.000000000000 0.01498132  0.00048963  0.0860568 0.7000
  1    -39.8038206985  -0.018251641281 0.00937431  0.00036598  0.0438613 0.7000
                               ***Turning on DIIS***
  2    -39.8119027877  -0.008082089209 0.01607749  0.00064146  0.0175587 0.0000
  3    -39.8229686186  -0.011065830858 0.00674590  0.00027421  0.0259220 0.0000
  4    -39.8263438511  -0.003375232542 0.00254324  0.00007578  0.0048773 0.0000
  5    -39.8264804796  -0.000136628443 0.00089937  0.00003175  0.0014458 0.0000
  6    -39.8264978038  -0.000017324253 0.00050454  0.00002460  0.0005442 0.0000
               *** Restarting incremental Fock matrix formation ***
                                   *** Resetting DIIS ***
  7    -39.8265021754  -0.000004371572 0.00008935  0.00000300  0.0000826 0.0000
                 **** Energy Check signals convergence ****

               *****************************************************
               *                     SUCCESS                       *
               *           SCF CONVERGED AFTER   8 CYCLES          *
               *****************************************************

Old exchange energy                            =     -1.239373211 Eh
New exchange energy                            =     -1.239376225 Eh
Exchange energy change after final integration =     -0.000003014 Eh
Total energy after final integration           =    -39.826505265 Eh
Final COS-X integration done in                =     0.203 sec

----------------
TOTAL SCF ENERGY
----------------

Total Energy       :          -39.82650526 Eh           -1083.73430 eV

Components:
Nuclear Repulsion  :            9.59330010 Eh             261.04697 eV
Electronic Energy  :          -49.41980536 Eh           -1344.78127 eV
One Electron Energy:          -71.49981820 Eh           -1945.60897 eV
Two Electron Energy:           22.08001284 Eh             600.82769 eV
Max COSX asymmetry :            0.00000006 Eh               0.00000 eV

Virial components:
Potential Energy   :          -79.41700971 Eh           -2161.04670 eV
Kinetic Energy     :           39.59050444 Eh            1077.31240 eV
Virial Ratio       :            2.00596105


DFT components:
N(Alpha)           :        4.999999011656 electrons
N(Beta)            :        3.999999662931 electrons
N(Total)           :        8.999998674587 electrons
E(X)               :       -4.905870700383 Eh       
E(C)               :       -0.309150008305 Eh       
E(XC)              :       -5.215020708688 Eh       
DFET-embed. en.    :        0.000000000000 Eh       

---------------
SCF CONVERGENCE
---------------

  Last Energy change         ...   -7.5095e-08  Tolerance :   1.0000e-06
  Last MAX-Density change    ...    0.0000e+00  Tolerance :   1.0000e-05
  Last RMS-Density change    ...    0.0000e+00  Tolerance :   1.0000e-06
  Last DIIS Error            ...    5.5276e-05  Tolerance :   1.0000e-06

             **** THE GBW FILE WAS UPDATED (/home/rwth0701/scratch/cs681498/orcajob__30556094-BEmE/301.gbw) ****
             **** DENSITY /home/rwth0701/scratch/cs681498/orcajob__30556094-BEmE/301.scfp WAS UPDATED ****
             **** ENERGY FILE WAS UPDATED (/home/rwth0701/scratch/cs681498/orcajob__30556094-BEmE/301.en.tmp) ****
----------------------
UHF SPIN CONTAMINATION
----------------------

Warning: in a DFT calculation there is little theoretical justification to 
         calculate <S**2> as in Hartree-Fock theory. We will do it anyways
         but you should keep in mind that the values have only limited relevance

Expectation value of <S**2>     :     0.753610
Ideal value S*(S+1) for S=0.5   :     0.750000
Deviation                       :     0.003610

             **** THE GBW FILE WAS UPDATED (/home/rwth0701/scratch/cs681498/orcajob__30556094-BEmE/301.gbw) ****
             **** DENSITY /home/rwth0701/scratch/cs681498/orcajob__30556094-BEmE/301.scfp WAS UPDATED ****
----------------
ORBITAL ENERGIES
----------------
                 SPIN UP ORBITALS
  NO   OCC          E(Eh)            E(eV) 
   0   1.0000     -10.187228      -277.2086 
   1   1.0000      -0.685836       -18.6626 
   2   1.0000      -0.428094       -11.6490 
   3   1.0000      -0.412149       -11.2152 
   4   1.0000      -0.236806        -6.4438 
   5   0.0000       0.000590         0.0160 
   6   0.0000       0.036298         0.9877 
   7   0.0000       0.037481         1.0199 
   8   0.0000       0.047394         1.2897 
   9   0.0000       0.086708         2.3594 
  10   0.0000       0.091582         2.4921 
  11   0.0000       0.096066         2.6141 
  12   0.0000       0.222283         6.0486 
  13   0.0000       0.224598         6.1116 
  14   0.0000       0.248350         6.7580 
  15   0.0000       0.276843         7.5333 
  16   0.0000       0.294650         8.0178 
  17   0.0000       0.311740         8.4829 
  18   0.0000       0.341844         9.3021 
  19   0.0000       0.551395        15.0042 
  20   0.0000       0.558836        15.2067 
  21   0.0000       0.742423        20.2024 
  22   0.0000       0.746633        20.3169 
  23   0.0000       0.769300        20.9337 
  24   0.0000       0.835519        22.7356 
  25   0.0000       0.882141        24.0043 
  26   0.0000       0.890918        24.2431 
  27   0.0000       0.922698        25.1079 
  28   0.0000       0.981841        26.7172 
  29   0.0000       1.057595        28.7786 
  30   0.0000       1.065118        28.9833 
  31   0.0000       1.079239        29.3676 
  32   0.0000       1.184873        32.2420 
  33   0.0000       1.189147        32.3583 
  34   0.0000       1.456549        39.6347 
  35   0.0000       1.470604        40.0172 
  36   0.0000       1.485598        40.4252 
  37   0.0000       1.691550        46.0294 
  38   0.0000       1.719979        46.8030 
  39   0.0000       1.734491        47.1979 
  40   0.0000       2.729802        74.2817 
  41   0.0000       2.745767        74.7161 
  42   0.0000       2.882481        78.4363 
  43   0.0000       2.895537        78.7916 
  44   0.0000       2.915716        79.3407 
  45   0.0000       2.967738        80.7563 
  46   0.0000       2.997030        81.5533 
  47   0.0000       3.149642        85.7061 
  48   0.0000       3.164470        86.1096 
  49   0.0000       3.243418        88.2579 
  50   0.0000       3.256402        88.6112 
  51   0.0000       3.698680       100.6462 
  52   0.0000       3.770801       102.6087 
  53   0.0000       3.811662       103.7206 
  54   0.0000       3.885934       105.7416 
  55   0.0000       3.972109       108.0866 
  56   0.0000       4.039269       109.9141 
  57   0.0000       4.124009       112.2200 
  58   0.0000       4.134236       112.4983 
  59   0.0000       4.141937       112.7078 
  60   0.0000       4.633983       126.0971 
  61   0.0000       4.983657       135.6122 
  62   0.0000       5.298145       144.1698 
  63   0.0000       5.406844       147.1277 
  64   0.0000       5.528033       150.4254 
  65   0.0000       6.041963       164.4102 
  66   0.0000       6.136475       166.9820 
  67   0.0000       7.727080       210.2645 
  68   0.0000      29.064210       790.8774 
  69   0.0000      37.088239      1009.2223 
  70   0.0000      37.203737      1012.3651 
  71   0.0000      37.218265      1012.7605 
  72   0.0000     133.519506      3633.2505 

                 SPIN DOWN ORBITALS
  NO   OCC          E(Eh)            E(eV) 
   0   1.0000     -10.172695      -276.8131 
   1   1.0000      -0.646639       -17.5960 
   2   1.0000      -0.418446       -11.3865 
   3   1.0000      -0.402782       -10.9603 
   4   0.0000      -0.078367        -2.1325 
   5   0.0000       0.003731         0.1015 
   6   0.0000       0.035946         0.9781 
   7   0.0000       0.037141         1.0107 
   8   0.0000       0.060590         1.6487 
   9   0.0000       0.088446         2.4067 
  10   0.0000       0.093619         2.5475 
  11   0.0000       0.099346         2.7034 
  12   0.0000       0.223506         6.0819 
  13   0.0000       0.225910         6.1473 
  14   0.0000       0.267816         7.2876 
  15   0.0000       0.300168         8.1680 
  16   0.0000       0.311024         8.4634 
  17   0.0000       0.317186         8.6311 
  18   0.0000       0.355223         9.6661 
  19   0.0000       0.576837        15.6965 
  20   0.0000       0.585178        15.9235 
  21   0.0000       0.744376        20.2555 
  22   0.0000       0.748716        20.3736 
  23   0.0000       0.797410        21.6986 
  24   0.0000       0.833621        22.6840 
  25   0.0000       0.886254        24.1162 
  26   0.0000       0.895806        24.3761 
  27   0.0000       0.939499        25.5651 
  28   0.0000       1.002032        27.2667 
  29   0.0000       1.079119        29.3643 
  30   0.0000       1.099090        29.9078 
  31   0.0000       1.124835        30.6083 
  32   0.0000       1.196908        32.5695 
  33   0.0000       1.202300        32.7162 
  34   0.0000       1.469374        39.9837 
  35   0.0000       1.481568        40.3155 
  36   0.0000       1.500373        40.8272 
  37   0.0000       1.699741        46.2523 
  38   0.0000       1.725861        46.9631 
  39   0.0000       1.742777        47.4234 
  40   0.0000       2.769278        75.3559 
  41   0.0000       2.784817        75.7787 
  42   0.0000       2.895810        78.7990 
  43   0.0000       2.921612        79.5011 
  44   0.0000       2.960083        80.5480 
  45   0.0000       2.977870        81.0319 
  46   0.0000       3.049045        82.9687 
  47   0.0000       3.200424        87.0880 
  48   0.0000       3.212972        87.4294 
  49   0.0000       3.302934        89.8774 
  50   0.0000       3.315310        90.2142 
  51   0.0000       3.754299       102.1597 
  52   0.0000       3.774244       102.7024 
  53   0.0000       3.813031       103.7579 
  54   0.0000       3.887063       105.7724 
  55   0.0000       3.986446       108.4767 
  56   0.0000       4.055077       110.3442 
  57   0.0000       4.128144       112.3325 
  58   0.0000       4.142400       112.7204 
  59   0.0000       4.163297       113.2891 
  60   0.0000       4.634438       126.1095 
  61   0.0000       5.005678       136.2114 
  62   0.0000       5.298272       144.1733 
  63   0.0000       5.405524       147.0918 
  64   0.0000       5.525606       150.3594 
  65   0.0000       6.044394       164.4763 
  66   0.0000       6.140357       167.0876 
  67   0.0000       7.761937       211.2130 
  68   0.0000      29.091036       791.6073 
  69   0.0000      37.076724      1008.9089 
  70   0.0000      37.192362      1012.0556 
  71   0.0000      37.207541      1012.4687 
  72   0.0000     133.527546      3633.4692 

                    ********************************
                    * MULLIKEN POPULATION ANALYSIS *
                    ********************************

--------------------------------------------
MULLIKEN ATOMIC CHARGES AND SPIN POPULATIONS
--------------------------------------------
   0 C :   -0.423374    1.100596
   1 H :    0.136085   -0.036210
   2 H :    0.143272   -0.031647
   3 H :    0.144016   -0.032740
Sum of atomic charges         :    0.0000000
Sum of atomic spin populations:    1.0000000

-----------------------------------------------------
MULLIKEN REDUCED ORBITAL CHARGES AND SPIN POPULATIONS
-----------------------------------------------------
CHARGE
  0 C s       :     3.339636  s :     3.339636
      pz      :     1.032035  p :     3.056560
      px      :     1.023109
      py      :     1.001416
      dz2     :     0.005339  d :     0.024267
      dxz     :     0.005092
      dyz     :     0.005734
      dx2y2   :     0.004410
      dxy     :     0.003691
      f0      :     0.000071  f :     0.002911
      f+1     :     0.000903
      f-1     :     0.000576
      f+2     :     0.000537
      f-2     :     0.000153
      f+3     :     0.000087
      f-3     :     0.000584
  1 H s       :     0.839310  s :     0.839310
      pz      :     0.006430  p :     0.024606
      px      :     0.009627
      py      :     0.008549
  2 H s       :     0.829022  s :     0.829022
      pz      :     0.009135  p :     0.027706
      px      :     0.007928
      py      :     0.010643
  3 H s       :     0.829142  s :     0.829142
      pz      :     0.009625  p :     0.026842
      px      :     0.008377
      py      :     0.008840

SPIN
  0 C s       :     0.072535  s :     0.072535
      pz      :     0.213362  p :     1.032414
      px      :     0.249041
      py      :     0.570011
      dz2     :     0.000107  d :    -0.003044
      dxz     :    -0.000105
      dyz     :    -0.001283
      dx2y2   :    -0.000459
      dxy     :    -0.001303
      f0      :    -0.000005  f :    -0.001309
      f+1     :    -0.000207
      f-1     :    -0.000344
      f+2     :    -0.000237
      f-2     :    -0.000078
      f+3     :    -0.000071
      f-3     :    -0.000367
  1 H s       :    -0.045327  s :    -0.045327
      pz      :     0.001644  p :     0.009117
      px      :     0.001731
      py      :     0.005742
  2 H s       :    -0.042015  s :    -0.042015
      pz      :     0.002274  p :     0.010368
      px      :     0.002327
      py      :     0.005767
  3 H s       :    -0.042941  s :    -0.042941
      pz      :     0.001609  p :     0.010202
      px      :     0.002550
      py      :     0.006042


                     *******************************
                     * LOEWDIN POPULATION ANALYSIS *
                     *******************************

-------------------------------------------
LOEWDIN ATOMIC CHARGES AND SPIN POPULATIONS
-------------------------------------------
   0 C :   -0.156491    0.910831
   1 H :    0.070031    0.023454
   2 H :    0.035924    0.035171
   3 H :    0.050536    0.030544

----------------------------------------------------
LOEWDIN REDUCED ORBITAL CHARGES AND SPIN POPULATIONS
----------------------------------------------------
CHARGE
  0 C s       :     2.889267  s :     2.889267
      pz      :     1.098237  p :     3.167507
      px      :     1.077457
      py      :     0.991814
      dz2     :     0.023213  d :     0.092243
      dxz     :     0.022239
      dyz     :     0.018793
      dx2y2   :     0.015449
      dxy     :     0.012550
      f0      :     0.000192  f :     0.007473
      f+1     :     0.002173
      f-1     :     0.001312
      f+2     :     0.001338
      f-2     :     0.000535
      f+3     :     0.000349
      f-3     :     0.001573
  1 H s       :     0.799585  s :     0.799585
      pz      :     0.028548  p :     0.130385
      px      :     0.062381
      py      :     0.039456
  2 H s       :     0.810169  s :     0.810169
      pz      :     0.055864  p :     0.153907
      px      :     0.038736
      py      :     0.059307
  3 H s       :     0.805277  s :     0.805277
      pz      :     0.062339  p :     0.144188
      px      :     0.044450
      py      :     0.037398

SPIN
  0 C s       :     0.023404  s :     0.023404
      pz      :     0.177477  p :     0.895817
      px      :     0.209765
      py      :     0.508575
      dz2     :    -0.001202  d :    -0.007133
      dxz     :    -0.001284
      dyz     :    -0.001886
      dx2y2   :    -0.001202
      dxy     :    -0.001561
      f0      :     0.000012  f :    -0.001257
      f+1     :    -0.000286
      f-1     :    -0.000323
      f+2     :    -0.000260
      f-2     :     0.000011
      f+3     :    -0.000030
      f-3     :    -0.000381
  1 H s       :    -0.018065  s :    -0.018065
      pz      :     0.007400  p :     0.041519
      px      :     0.011764
      py      :     0.022354
  2 H s       :    -0.015179  s :    -0.015179
      pz      :     0.011601  p :     0.050350
      px      :     0.011107
      py      :     0.027643
  3 H s       :    -0.016418  s :    -0.016418
      pz      :     0.011094  p :     0.046963
      px      :     0.011407
      py      :     0.024462


                      *****************************
                      * MAYER POPULATION ANALYSIS *
                      *****************************

  NA   - Mulliken gross atomic population
  ZA   - Total nuclear charge
  QA   - Mulliken gross atomic charge
  VA   - Mayer's total valence
  BVA  - Mayer's bonded valence
  FA   - Mayer's free valence

  ATOM       NA         ZA         QA         VA         BVA        FA
  0 C      6.4234     6.0000    -0.4234     3.8729     2.9293     0.9436
  1 H      0.8639     1.0000     0.1361     0.9828     0.9807     0.0021
  2 H      0.8567     1.0000     0.1433     0.9816     0.9798     0.0018
  3 H      0.8560     1.0000     0.1440     0.9838     0.9819     0.0019

  Mayer bond orders larger than 0.100000
B(  0-C ,  1-H ) :   0.9768 B(  0-C ,  2-H ) :   0.9765 B(  0-C ,  3-H ) :   0.9760 


-------
TIMINGS
-------

Total SCF time: 0 days 0 hours 0 min 5 sec 

Total time                  ....       5.417 sec
Sum of individual times     ....       4.798 sec  ( 88.6%)

Fock matrix formation       ....       4.018 sec  ( 74.2%)
  Split-RI-J                ....       0.472 sec  ( 11.7% of F)
  Chain of spheres X        ....       1.022 sec  ( 25.4% of F)
  XC integration            ....       1.744 sec  ( 43.4% of F)
    Basis function eval.    ....       0.121 sec  (  6.9% of XC)
    Density eval.           ....       0.154 sec  (  8.8% of XC)
    XC-Functional eval.     ....       0.130 sec  (  7.4% of XC)
    XC-Potential eval.      ....       0.169 sec  (  9.7% of XC)
Diagonalization             ....       0.049 sec  (  0.9%)
Density matrix formation    ....       0.003 sec  (  0.1%)
Population analysis         ....       0.055 sec  (  1.0%)
Initial guess               ....       0.097 sec  (  1.8%)
Orbital Transformation      ....       0.000 sec  (  0.0%)
Orbital Orthonormalization  ....       0.000 sec  (  0.0%)
DIIS solution               ....       0.065 sec  (  1.2%)
Grid generation             ....       0.511 sec  (  9.4%)

Maximum memory used throughout the entire SCF-calculation: 59.0 MB

-------------------------   --------------------
FINAL SINGLE POINT ENERGY       -39.826505264828
-------------------------   --------------------

   --->>> g-tensor requested, so NeedSOC=true

                            ***************************************
                            *     ORCA property calculations      *
                            ***************************************

                                    ---------------------
                                    Active property flags
                                    ---------------------
   (+) Dipole Moment
   (+) g-tensor
   (+) Nuclear properties (Hyperfine,Quadrupole)
   (+) Spin-Orbit Integrals are needed


------------------------------------------------------------------------------
                       ORCA ELECTRIC PROPERTIES CALCULATION
------------------------------------------------------------------------------

Dipole Moment Calculation                       ... on
Quadrupole Moment Calculation                   ... off
Polarizability Calculation                      ... off
GBWName                                         ... /home/rwth0701/scratch/cs681498/orcajob__30556094-BEmE/301.gbw
Electron density                                ... /home/rwth0701/scratch/cs681498/orcajob__30556094-BEmE/301.scfp
The origin for moment calculation is the CENTER OF MASS  = (22.288791, -2.851471 -13.924694)

-------------
DIPOLE MOMENT
-------------
                                X             Y             Z
Electronic contribution:      0.12702       0.06281       0.04537
Nuclear contribution   :     -0.15921      -0.12542      -0.07280
                        -----------------------------------------
Total Dipole Moment    :     -0.03219      -0.06261      -0.02743
                        -----------------------------------------
Magnitude (a.u.)       :      0.07555
Magnitude (Debye)      :      0.19204



--------------------
Rotational spectrum 
--------------------
 
Rotational constants in cm-1:     9.777484     8.953795     4.725506 
Rotational constants in MHz : 293121.582702 268428.017682 141667.115537 

 Dipole components along the rotational axes: 
x,y,z [a.u.] :    -0.000721     0.008349    -0.075088 
x,y,z [Debye]:    -0.001832     0.021220    -0.190860 

 


           ************************************************************
           *        Program running with 4 parallel MPI-processes     *
           *              working on a common directory               *
           ************************************************************
------------------------------------------------------------------------------
                         ORCA SPIN-ORBIT COUPLING CALCULATION
------------------------------------------------------------------------------

GBW file                                    ... /home/rwth0701/scratch/cs681498/orcajob__30556094-BEmE/301.gbw
Input density                               ... /home/rwth0701/scratch/cs681498/orcajob__30556094-BEmE/301.scfp
Output integrals                            ... /home/rwth0701/scratch/cs681498/orcajob__30556094-BEmE/301
Operator type                               ... Mean-field/Effective potential
   One-Electron Terms                       ... 1
   Coulomb Contribution                     ... 3
   Exchange Contribution                    ... 3
   Correlation Contribution                 ... 0
   Maximum number of centers                ... 4
SHARK 2-electron RIJ-SOMF                   ... done (  0.2 sec)
SHARK 1-electron  MaxCenter=4               ... done (  0.0 sec)
SHARK 2-electron DoJ,X=0,1 MaxCenter=1      ... done (  0.1 sec)

Maximum memory used throughout the entire SOC-calculation: 11.3 MB
Total time for SOC:  2.971


           ************************************************************
           *        Program running with 4 parallel MPI-processes     *
           *              working on a common directory               *
           ************************************************************
------------------------------------------------------------------------------
                                ORCA EPR/NMR CALCULATION
------------------------------------------------------------------------------

GBWName                      ... /home/rwth0701/scratch/cs681498/orcajob__30556094-BEmE/301.gbw
Electron density             ... /home/rwth0701/scratch/cs681498/orcajob__30556094-BEmE/301.scfp
Spin density                 ... /home/rwth0701/scratch/cs681498/orcajob__30556094-BEmE/301.scfr
Spin-orbit integrals         ... /home/rwth0701/scratch/cs681498/orcajob__30556094-BEmE/301
Treatment of gauge           ... GIAO (approximations 1/2el = 0,0)
Details of the CP(SCF) procedure:
       Solver   = POPLE   
       MaxIter  =    64   
       Tolerance=    1.000e-03
       COSX Grid=     1   
       Op-0     =   0-  4 =>   5- 72
       Op-1     =   0-  3 =>   4- 72
Multiplicity                 ... 2
g-tensor                     ... 1
NMR chemical shifts          ... 0
NMR spin-spin couplings      ... 0
NMR spectrum                 ... 0
Number of nuclei for epr/nmr ... 4
   Nucleus:   1H 
       Hyperfine : Isotope=    1 I=   0.500 P= 533.551
       Quadrupole: Isotope=    2 I=   1.000 Q=   0.003
       Spin-Orbit: Zeff=   1.000
       Nuclear Spin-Spin: Gn=   0.000
       EPRNMR Input: 
       rho(0)=N f(grad)=N a(iso)=Y a(dip)=Y a(orb)=Y sigma(nmr)=N spin-spin(nmr)=all-N,DSO-N,PSO-N,FC-N,SD-N
   Nucleus:   2H 
       Hyperfine : Isotope=    1 I=   0.500 P= 533.551
       Quadrupole: Isotope=    2 I=   1.000 Q=   0.003
       Spin-Orbit: Zeff=   1.000
       Nuclear Spin-Spin: Gn=   0.000
       EPRNMR Input: 
       rho(0)=N f(grad)=N a(iso)=Y a(dip)=Y a(orb)=Y sigma(nmr)=N spin-spin(nmr)=all-N,DSO-N,PSO-N,FC-N,SD-N
   Nucleus:   3H 
       Hyperfine : Isotope=    1 I=   0.500 P= 533.551
       Quadrupole: Isotope=    2 I=   1.000 Q=   0.003
       Spin-Orbit: Zeff=   1.000
       Nuclear Spin-Spin: Gn=   0.000
       EPRNMR Input: 
       rho(0)=N f(grad)=N a(iso)=Y a(dip)=Y a(orb)=Y sigma(nmr)=N spin-spin(nmr)=all-N,DSO-N,PSO-N,FC-N,SD-N
   Nucleus:   0C 
       Hyperfine : Isotope=   13 I=   0.500 P= 134.190
       Quadrupole: Isotope=   13 I=   0.500 Q=   0.000
       Spin-Orbit: Zeff=   3.600
       Nuclear Spin-Spin: Gn=   0.000
       EPRNMR Input: 
       rho(0)=N f(grad)=N a(iso)=Y a(dip)=Y a(orb)=Y sigma(nmr)=N spin-spin(nmr)=all-N,DSO-N,PSO-N,FC-N,SD-N
Forming RHS of the CP-SCF equations         ... 
Calculating right hand sides for GIAO treatment        ... 
  Entering RightHandSide GIAO. ScalHFX=    0.2000 NeedHFX=1
     -> 1-electron GIAO integrals will be done analytically
     -> RIJCOSX used in SCF. Same chosen for GIAO calculation.
     Making grid for GIAO integrations   ...

GRID GIAO
---------

General Integration Accuracy     IntAcc      ... 4.388
Radial Grid Type                 RadialGrid  ... OptM3 with GC (2021)
Angular Grid (max. ang.)         AngularGrid ... 4 (Lebedev-302)
Angular grid pruning method      GridPruning ... 4 (adaptive)
Weight generation scheme         WeightScheme... Becke
Basis function cutoff            BFCut       ... 1.0000e-10
Integration weight cutoff        WCut        ... 1.0000e-14
Angular grids for H and He will be reduced by one unit
Partially contracted basis set               ... off
Rotationally invariant grid construction     ... off

Total number of grid points                  ...    17066
Total number of batches                      ...      269
Average number of points per batch           ...       63
Average number of grid points per atom       ...     4266

  One-electron GIAO integrals (SHARK)     ... done
  Calculating G(B)[P]                     ... (RI-J: SHARK-ok) (COSX-ok) (add-J+K:ok) => dG/dB done
  DFT XC-terms                            ... done
  Extracting occupied and virtual blocks  ... 
  Operator  0  NO=   5 NV=  68 
  Operator  1  NO=   4 NV=  69 
  Transforming and RHS contribution       ... done
  Adding eps_i * S(B)_ai terms            ... done
  Projecting overlap derivatives          ... done
  Building G[dS/dB_ij] (COSX)             ... done
  Transforming to MO basis                ... done
  Summing G[dS/dB_ij] into RHS contribs.  ... done

  GIAO profiling information: 
    Total GIAO time               ...       0.9 sec
       GIAO 1-electron integrals  ...       0.0 sec (  1.6%)
       GIAO G(dS/dB) terms        ...       0.1 sec ( 11.2%)
       GIAO RI-J                  ...       0.1 sec ( 12.3%)
       GIAO COSX                  ...       0.2 sec ( 18.4%)
       GIAO XC-terms              ...       0.3 sec ( 36.8%)

  GIAO right hand side done


------------------------------------------------------------------------------
                           ORCA CP-SCF CALCULATION
------------------------------------------------------------------------------

Input orbitals are from        ... /home/rwth0701/scratch/cs681498/orcajob__30556094-BEmE/301.gbw
Input Perturbation             ... /home/rwth0701/scratch/cs681498/orcajob__30556094-BEmE/301.pin.tmp
Wavefunction output            ... /home/rwth0701/scratch/cs681498/orcajob__30556094-BEmE/301.pout.tmp
Perturbation mode              ... Imaginary perturbation
Solver                         ... POPLE
Max. number of iterations      ... 64
Convergence tolerance          ... 1.000e-03
Integral handling              ... Direct
DFT GridXC                     ... 1
COSX GridX                     ... 1
COSX IntAccX                   ... 3.067
COSX Algorithm                 ... Auto
Number of perturbations        ... 3
Number of operators            ... 2
Orbital ranges used for CP-SCF:
 Operator 0:  Orbitals   0...  4  to   5... 72
 Operator 1:  Orbitals   0...  3  to   4... 72
Variables per perturbation     ... 616
DFT calculation                         ... on
XC functional terms                     ... off
Hybrid DFT                              ... on
   Exchange mixing (SCF)                ...  0.200
   Exchange mixing (CP-SCF)             ...  0.200
   GGA exch. scaling(SCF)               ...  0.720
   GGA exch. scaling (CP-SCF)           ...  0.720
   GGA corr. scaling (SCF)              ...  0.810
   GGA corr. scaling (CP-SCF)           ...  0.810

CP-SCF GRID
-----------

General Integration Accuracy     IntAcc      ... 3.467
Radial Grid Type                 RadialGrid  ... OptM3 with GC (2021)
Angular Grid (max. ang.)         AngularGrid ... 1 (Lebedev-50)
Angular grid pruning method      GridPruning ... 4 (adaptive)
Weight generation scheme         WeightScheme... Becke
Basis function cutoff            BFCut       ... 1.0000e-10
Integration weight cutoff        WCut        ... 1.0000e-14
Angular grids for H and He will be reduced by one unit
Partially contracted basis set               ... off
Rotationally invariant grid construction     ... off

Total number of grid points                  ...     2348
Total number of batches                      ...       38
Average number of points per batch           ...       61
Average number of grid points per atom       ...      587

CP-SCF GRIDX
------------

General Integration Accuracy     IntAcc      ... 3.067
Radial Grid Type                 RadialGrid  ... OptM3 with GC (2021)
Angular Grid (max. ang.)         AngularGrid ... 1 (Lebedev-50)
Angular grid pruning method      GridPruning ... 4 (adaptive)
Weight generation scheme         WeightScheme... Becke
Basis function cutoff            BFCut       ... 1.0000e-10
Integration weight cutoff        WCut        ... 1.0000e-14
Angular grids for H and He will be reduced by one unit
Partially contracted basis set               ... on
Rotationally invariant grid construction     ... off

Total number of grid points                  ...     1078
Total number of batches                      ...       20
Average number of points per batch           ...       53
Average number of grid points per atom       ...      270

Memory available               ... 1014.6 MB
Memory needed per perturbation ...   0.4 MB
Perturbations treated per batch... 3
Number of batches              ... 1
     CP-SCF ITERATION   0:   9.1024e-01 (   0.1 sec   0/  3 done)
     CP-SCF ITERATION   1:   2.3240e-02 (   0.1 sec   0/  3 done)
     CP-SCF ITERATION   2:   1.5461e-03 (   0.1 sec   1/  3 done)
     CP-SCF ITERATION   3:   6.0869e-05 (   0.1 sec   3/  3 done)
                    *** THE CP-SCF HAS CONVERGED ***

Forming final perturbed densities           ... done
Transforming perturbed density to AO basis  ... done

Magnetic field perturbation calculated in  1.459 sec
GIAO: Diamagnetic terms      (analytic)     (SHARK) ... done
GIAO: 1el-Paramagnetic terms (analytic)     (SHARK) ... done

-------------------
ELECTRONIC G-MATRIX
-------------------

 The g-matrix: 
              2.0027563   -0.0002431   -0.0001495
             -0.0002310    2.0025050   -0.0002225
             -0.0001409   -0.0002152    2.0027583

 gel          2.0023193    2.0023193    2.0023193
 gRMC        -0.0001275   -0.0001275   -0.0001275
 gDSO(tot)    0.0000344    0.0000706    0.0000705
 gPSO(tot)    0.0000054    0.0006202    0.0006432
             ----------   ----------   ----------
 g(tot)       2.0022316    2.0028826    2.0029055 iso=  2.0026732
 Delta-g     -0.0000877    0.0005633    0.0005862 iso=  0.0003539
 Orientation: 
  X          -0.4680678    0.2598589   -0.8446217
  Y          -0.7628705   -0.6012380    0.2377847
  Z          -0.4460282    0.7556363    0.4796588

Notes:  (1) The g-matrix conforms to the "BgS" spin Hamiltonian convention. 
        (2) The principal values are square roots of the eigenvalues of g*gT.
        (3) Orientations are eigenvectors of g*gT written as column vectors.
        (4) Individual contributions are projections of the full matrices onto the eigenvectors of g*gT.
        (5) Tensor is right-handed.


-----------------------------------------
ELECTRIC AND MAGNETIC HYPERFINE STRUCTURE
-----------------------------------------

 -----------------------------------------------------------
 Nucleus   1H : A:ISTP=    1 I=  0.5 P=533.5514 MHz/au**3
                Q:ISTP=    2 I=  1.0 Q=  0.0029 barn     
 -----------------------------------------------------------
 Solving for nuclear perturbation:
Forming RHS of the CP-SCF equations         ... 
Calc. nucleus orbit integrals (SHARK)       ... done

------------------------------------------------------------------------------
                           ORCA CP-SCF CALCULATION
------------------------------------------------------------------------------

Input orbitals are from        ... /home/rwth0701/scratch/cs681498/orcajob__30556094-BEmE/301.gbw
Input Perturbation             ... /home/rwth0701/scratch/cs681498/orcajob__30556094-BEmE/301.pin.tmp
Wavefunction output            ... /home/rwth0701/scratch/cs681498/orcajob__30556094-BEmE/301.pout.tmp
Perturbation mode              ... Imaginary perturbation
Solver                         ... POPLE
Max. number of iterations      ... 64
Convergence tolerance          ... 1.000e-03
Integral handling              ... Direct
DFT GridXC                     ... 1
COSX GridX                     ... 1
COSX IntAccX                   ... 3.067
COSX Algorithm                 ... Auto
Number of perturbations        ... 3
Number of operators            ... 2
Orbital ranges used for CP-SCF:
 Operator 0:  Orbitals   0...  4  to   5... 72
 Operator 1:  Orbitals   0...  3  to   4... 72
Variables per perturbation     ... 616
DFT calculation                         ... on
XC functional terms                     ... off
Hybrid DFT                              ... on
   Exchange mixing (SCF)                ...  0.200
   Exchange mixing (CP-SCF)             ...  0.200
   GGA exch. scaling(SCF)               ...  0.720
   GGA exch. scaling (CP-SCF)           ...  0.720
   GGA corr. scaling (SCF)              ...  0.810
   GGA corr. scaling (CP-SCF)           ...  0.810

CP-SCF GRID
-----------

General Integration Accuracy     IntAcc      ... 3.467
Radial Grid Type                 RadialGrid  ... OptM3 with GC (2021)
Angular Grid (max. ang.)         AngularGrid ... 1 (Lebedev-50)
Angular grid pruning method      GridPruning ... 4 (adaptive)
Weight generation scheme         WeightScheme... Becke
Basis function cutoff            BFCut       ... 1.0000e-10
Integration weight cutoff        WCut        ... 1.0000e-14
Angular grids for H and He will be reduced by one unit
Partially contracted basis set               ... off
Rotationally invariant grid construction     ... off

Total number of grid points                  ...     2348
Total number of batches                      ...       38
Average number of points per batch           ...       61
Average number of grid points per atom       ...      587

CP-SCF GRIDX
------------

General Integration Accuracy     IntAcc      ... 3.067
Radial Grid Type                 RadialGrid  ... OptM3 with GC (2021)
Angular Grid (max. ang.)         AngularGrid ... 1 (Lebedev-50)
Angular grid pruning method      GridPruning ... 4 (adaptive)
Weight generation scheme         WeightScheme... Becke
Basis function cutoff            BFCut       ... 1.0000e-10
Integration weight cutoff        WCut        ... 1.0000e-14
Angular grids for H and He will be reduced by one unit
Partially contracted basis set               ... on
Rotationally invariant grid construction     ... off

Total number of grid points                  ...     1078
Total number of batches                      ...       20
Average number of points per batch           ...       53
Average number of grid points per atom       ...      270

Memory available               ... 968.0 MB
Memory needed per perturbation ...   0.4 MB
Perturbations treated per batch... 3
Number of batches              ... 1
     CP-SCF ITERATION   0:   5.4114e-02 (   0.1 sec   0/  3 done)
     CP-SCF ITERATION   1:   2.1366e-03 (   0.1 sec   0/  3 done)
     CP-SCF ITERATION   2:   1.4451e-04 (   0.1 sec   3/  3 done)
                    *** THE CP-SCF HAS CONVERGED ***

Forming final perturbed densities           ... done
Transforming perturbed density to AO basis  ... done

 Raw HFC matrix (all values in MHz): 
 -----------------------------------
               -33.2184             -16.8104               3.3109
               -16.8103             -63.1861              13.7365
                 3.3107              13.7366             -91.6408

 A(FC)         -62.6956             -62.6956             -62.6956
 A(SD)          37.1081              -1.1327             -35.9753
 A(ORB+DIA)      0.0133              -0.0006               0.0287    A(PC) =   0.0138
 A(ORB)          0.0090               0.0005               0.0275    A(PC) =   0.0123
 A(DIA)          0.0044              -0.0011               0.0012    A(PC) =   0.0015
             ----------           ----------           ----------
 A(Tot)        -25.5741             -63.8289             -98.6422    A(iso)=  -62.6818
 Orientation: 
  X           0.9063553            0.3938376           -0.1530096
  Y          -0.4204243            0.8046608           -0.4192427
  Z          -0.0419927            0.4443118            0.8948875

Notes:  (1) The A matrix conforms to the "SAI" spin Hamiltonian convention.
        (2) Tensor is right-handed.

 -----------------------------------------------------------
 Nucleus   2H : A:ISTP=    1 I=  0.5 P=533.5514 MHz/au**3
                Q:ISTP=    2 I=  1.0 Q=  0.0029 barn     
 -----------------------------------------------------------
 Solving for nuclear perturbation:
Forming RHS of the CP-SCF equations         ... 
Calc. nucleus orbit integrals (SHARK)       ... done

------------------------------------------------------------------------------
                           ORCA CP-SCF CALCULATION
------------------------------------------------------------------------------

Input orbitals are from        ... /home/rwth0701/scratch/cs681498/orcajob__30556094-BEmE/301.gbw
Input Perturbation             ... /home/rwth0701/scratch/cs681498/orcajob__30556094-BEmE/301.pin.tmp
Wavefunction output            ... /home/rwth0701/scratch/cs681498/orcajob__30556094-BEmE/301.pout.tmp
Perturbation mode              ... Imaginary perturbation
Solver                         ... POPLE
Max. number of iterations      ... 64
Convergence tolerance          ... 1.000e-03
Integral handling              ... Direct
DFT GridXC                     ... 1
COSX GridX                     ... 1
COSX IntAccX                   ... 3.067
COSX Algorithm                 ... Auto
Number of perturbations        ... 3
Number of operators            ... 2
Orbital ranges used for CP-SCF:
 Operator 0:  Orbitals   0...  4  to   5... 72
 Operator 1:  Orbitals   0...  3  to   4... 72
Variables per perturbation     ... 616
DFT calculation                         ... on
XC functional terms                     ... off
Hybrid DFT                              ... on
   Exchange mixing (SCF)                ...  0.200
   Exchange mixing (CP-SCF)             ...  0.200
   GGA exch. scaling(SCF)               ...  0.720
   GGA exch. scaling (CP-SCF)           ...  0.720
   GGA corr. scaling (SCF)              ...  0.810
   GGA corr. scaling (CP-SCF)           ...  0.810

CP-SCF GRID
-----------

General Integration Accuracy     IntAcc      ... 3.467
Radial Grid Type                 RadialGrid  ... OptM3 with GC (2021)
Angular Grid (max. ang.)         AngularGrid ... 1 (Lebedev-50)
Angular grid pruning method      GridPruning ... 4 (adaptive)
Weight generation scheme         WeightScheme... Becke
Basis function cutoff            BFCut       ... 1.0000e-10
Integration weight cutoff        WCut        ... 1.0000e-14
Angular grids for H and He will be reduced by one unit
Partially contracted basis set               ... off
Rotationally invariant grid construction     ... off

Total number of grid points                  ...     2348
Total number of batches                      ...       38
Average number of points per batch           ...       61
Average number of grid points per atom       ...      587

CP-SCF GRIDX
------------

General Integration Accuracy     IntAcc      ... 3.067
Radial Grid Type                 RadialGrid  ... OptM3 with GC (2021)
Angular Grid (max. ang.)         AngularGrid ... 1 (Lebedev-50)
Angular grid pruning method      GridPruning ... 4 (adaptive)
Weight generation scheme         WeightScheme... Becke
Basis function cutoff            BFCut       ... 1.0000e-10
Integration weight cutoff        WCut        ... 1.0000e-14
Angular grids for H and He will be reduced by one unit
Partially contracted basis set               ... on
Rotationally invariant grid construction     ... off

Total number of grid points                  ...     1078
Total number of batches                      ...       20
Average number of points per batch           ...       53
Average number of grid points per atom       ...      270

Memory available               ... 967.8 MB
Memory needed per perturbation ...   0.4 MB
Perturbations treated per batch... 3
Number of batches              ... 1
     CP-SCF ITERATION   0:   6.1458e-02 (   0.1 sec   0/  3 done)
     CP-SCF ITERATION   1:   2.6159e-03 (   0.1 sec   0/  3 done)
     CP-SCF ITERATION   2:   2.0186e-04 (   0.1 sec   3/  3 done)
                    *** THE CP-SCF HAS CONVERGED ***

Forming final perturbed densities           ... done
Transforming perturbed density to AO basis  ... done

 Raw HFC matrix (all values in MHz): 
 -----------------------------------
               -87.1617               4.2129              22.8246
                 4.2130             -44.0933             -23.0943
                22.8244             -23.0939             -48.9399

 A(FC)         -60.0793             -60.0793             -60.0793
 A(SD)          39.2969               2.0601             -41.3570
 A(ORB+DIA)      0.0117              -0.0005               0.0318    A(PC) =   0.0143
 A(ORB)          0.0065               0.0007               0.0302    A(PC) =   0.0125
 A(DIA)          0.0052              -0.0012               0.0015    A(PC) =   0.0019
             ----------           ----------           ----------
 A(Tot)        -20.7707             -58.0197            -101.4046    A(iso)=  -60.0650
 Orientation: 
  X          -0.2028949            0.5017788            0.8408637
  Y           0.6702321            0.6972114           -0.2543328
  Z          -0.7138786            0.5119710           -0.4777689

Notes:  (1) The A matrix conforms to the "SAI" spin Hamiltonian convention.
        (2) Tensor is right-handed.

 -----------------------------------------------------------
 Nucleus   3H : A:ISTP=    1 I=  0.5 P=533.5514 MHz/au**3
                Q:ISTP=    2 I=  1.0 Q=  0.0029 barn     
 -----------------------------------------------------------
 Solving for nuclear perturbation:
Forming RHS of the CP-SCF equations         ... 
Calc. nucleus orbit integrals (SHARK)       ... done

------------------------------------------------------------------------------
                           ORCA CP-SCF CALCULATION
------------------------------------------------------------------------------

Input orbitals are from        ... /home/rwth0701/scratch/cs681498/orcajob__30556094-BEmE/301.gbw
Input Perturbation             ... /home/rwth0701/scratch/cs681498/orcajob__30556094-BEmE/301.pin.tmp
Wavefunction output            ... /home/rwth0701/scratch/cs681498/orcajob__30556094-BEmE/301.pout.tmp
Perturbation mode              ... Imaginary perturbation
Solver                         ... POPLE
Max. number of iterations      ... 64
Convergence tolerance          ... 1.000e-03
Integral handling              ... Direct
DFT GridXC                     ... 1
COSX GridX                     ... 1
COSX IntAccX                   ... 3.067
COSX Algorithm                 ... Auto
Number of perturbations        ... 3
Number of operators            ... 2
Orbital ranges used for CP-SCF:
 Operator 0:  Orbitals   0...  4  to   5... 72
 Operator 1:  Orbitals   0...  3  to   4... 72
Variables per perturbation     ... 616
DFT calculation                         ... on
XC functional terms                     ... off
Hybrid DFT                              ... on
   Exchange mixing (SCF)                ...  0.200
   Exchange mixing (CP-SCF)             ...  0.200
   GGA exch. scaling(SCF)               ...  0.720
   GGA exch. scaling (CP-SCF)           ...  0.720
   GGA corr. scaling (SCF)              ...  0.810
   GGA corr. scaling (CP-SCF)           ...  0.810

CP-SCF GRID
-----------

General Integration Accuracy     IntAcc      ... 3.467
Radial Grid Type                 RadialGrid  ... OptM3 with GC (2021)
Angular Grid (max. ang.)         AngularGrid ... 1 (Lebedev-50)
Angular grid pruning method      GridPruning ... 4 (adaptive)
Weight generation scheme         WeightScheme... Becke
Basis function cutoff            BFCut       ... 1.0000e-10
Integration weight cutoff        WCut        ... 1.0000e-14
Angular grids for H and He will be reduced by one unit
Partially contracted basis set               ... off
Rotationally invariant grid construction     ... off

Total number of grid points                  ...     2348
Total number of batches                      ...       38
Average number of points per batch           ...       61
Average number of grid points per atom       ...      587

CP-SCF GRIDX
------------

General Integration Accuracy     IntAcc      ... 3.067
Radial Grid Type                 RadialGrid  ... OptM3 with GC (2021)
Angular Grid (max. ang.)         AngularGrid ... 1 (Lebedev-50)
Angular grid pruning method      GridPruning ... 4 (adaptive)
Weight generation scheme         WeightScheme... Becke
Basis function cutoff            BFCut       ... 1.0000e-10
Integration weight cutoff        WCut        ... 1.0000e-14
Angular grids for H and He will be reduced by one unit
Partially contracted basis set               ... on
Rotationally invariant grid construction     ... off

Total number of grid points                  ...     1078
Total number of batches                      ...       20
Average number of points per batch           ...       53
Average number of grid points per atom       ...      270

Memory available               ... 967.7 MB
Memory needed per perturbation ...   0.4 MB
Perturbations treated per batch... 3
Number of batches              ... 1
     CP-SCF ITERATION   0:   6.2837e-02 (   0.1 sec   0/  3 done)
     CP-SCF ITERATION   1:   2.5350e-03 (   0.1 sec   0/  3 done)
     CP-SCF ITERATION   2:   2.0986e-04 (   0.1 sec   3/  3 done)
                    *** THE CP-SCF HAS CONVERGED ***

Forming final perturbed densities           ... done
Transforming perturbed density to AO basis  ... done

 Raw HFC matrix (all values in MHz): 
 -----------------------------------
               -67.8228              17.4943             -27.2594
                17.4939             -77.4020               8.9988
               -27.2587               8.9982             -40.0166

 A(FC)         -61.7611             -61.7611             -61.7611
 A(SD)          38.4738               0.7057             -39.1795
 A(ORB+DIA)      0.0123              -0.0005               0.0301    A(PC) =   0.0140
 A(ORB)          0.0074               0.0006               0.0287    A(PC) =   0.0123
 A(DIA)          0.0049              -0.0011               0.0014    A(PC) =   0.0017
             ----------           ----------           ----------
 A(Tot)        -23.2750             -61.0559            -100.9105    A(iso)=  -61.7472
 Orientation: 
  X          -0.5304135           -0.5312010            0.6606717
  Y          -0.0305863           -0.7668347           -0.6411154
  Z           0.8471871           -0.3602638            0.3904920

Notes:  (1) The A matrix conforms to the "SAI" spin Hamiltonian convention.
        (2) Tensor is right-handed.

 -----------------------------------------------------------
 Nucleus   0C : A:ISTP=   13 I=  0.5 P=134.1903 MHz/au**3
                Q:ISTP=   13 I=  0.5 Q=  0.0000 barn     
 -----------------------------------------------------------
 Solving for nuclear perturbation:
Forming RHS of the CP-SCF equations         ... 
Calc. nucleus orbit integrals (SHARK)       ... done

------------------------------------------------------------------------------
                           ORCA CP-SCF CALCULATION
------------------------------------------------------------------------------

Input orbitals are from        ... /home/rwth0701/scratch/cs681498/orcajob__30556094-BEmE/301.gbw
Input Perturbation             ... /home/rwth0701/scratch/cs681498/orcajob__30556094-BEmE/301.pin.tmp
Wavefunction output            ... /home/rwth0701/scratch/cs681498/orcajob__30556094-BEmE/301.pout.tmp
Perturbation mode              ... Imaginary perturbation
Solver                         ... POPLE
Max. number of iterations      ... 64
Convergence tolerance          ... 1.000e-03
Integral handling              ... Direct
DFT GridXC                     ... 1
COSX GridX                     ... 1
COSX IntAccX                   ... 3.067
COSX Algorithm                 ... Auto
Number of perturbations        ... 3
Number of operators            ... 2
Orbital ranges used for CP-SCF:
 Operator 0:  Orbitals   0...  4  to   5... 72
 Operator 1:  Orbitals   0...  3  to   4... 72
Variables per perturbation     ... 616
DFT calculation                         ... on
XC functional terms                     ... off
Hybrid DFT                              ... on
   Exchange mixing (SCF)                ...  0.200
   Exchange mixing (CP-SCF)             ...  0.200
   GGA exch. scaling(SCF)               ...  0.720
   GGA exch. scaling (CP-SCF)           ...  0.720
   GGA corr. scaling (SCF)              ...  0.810
   GGA corr. scaling (CP-SCF)           ...  0.810

CP-SCF GRID
-----------

General Integration Accuracy     IntAcc      ... 3.467
Radial Grid Type                 RadialGrid  ... OptM3 with GC (2021)
Angular Grid (max. ang.)         AngularGrid ... 1 (Lebedev-50)
Angular grid pruning method      GridPruning ... 4 (adaptive)
Weight generation scheme         WeightScheme... Becke
Basis function cutoff            BFCut       ... 1.0000e-10
Integration weight cutoff        WCut        ... 1.0000e-14
Angular grids for H and He will be reduced by one unit
Partially contracted basis set               ... off
Rotationally invariant grid construction     ... off

Total number of grid points                  ...     2348
Total number of batches                      ...       38
Average number of points per batch           ...       61
Average number of grid points per atom       ...      587

CP-SCF GRIDX
------------

General Integration Accuracy     IntAcc      ... 3.067
Radial Grid Type                 RadialGrid  ... OptM3 with GC (2021)
Angular Grid (max. ang.)         AngularGrid ... 1 (Lebedev-50)
Angular grid pruning method      GridPruning ... 4 (adaptive)
Weight generation scheme         WeightScheme... Becke
Basis function cutoff            BFCut       ... 1.0000e-10
Integration weight cutoff        WCut        ... 1.0000e-14
Angular grids for H and He will be reduced by one unit
Partially contracted basis set               ... on
Rotationally invariant grid construction     ... off

Total number of grid points                  ...     1078
Total number of batches                      ...       20
Average number of points per batch           ...       53
Average number of grid points per atom       ...      270

Memory available               ... 967.6 MB
Memory needed per perturbation ...   0.4 MB
Perturbations treated per batch... 3
Number of batches              ... 1
     CP-SCF ITERATION   0:   1.0420e+00 (   0.1 sec   0/  3 done)
     CP-SCF ITERATION   1:   4.0167e-02 (   0.1 sec   0/  3 done)
     CP-SCF ITERATION   2:   2.9345e-03 (   0.1 sec   0/  3 done)
     CP-SCF ITERATION   3:   1.3756e-04 (   0.1 sec   3/  3 done)
                    *** THE CP-SCF HAS CONVERGED ***

Forming final perturbed densities           ... done
Transforming perturbed density to AO basis  ... done

 Raw HFC matrix (all values in MHz): 
 -----------------------------------
                77.5866              87.0074              50.3093
                87.0074             161.5734              80.2209
                50.3093              80.2209              68.5583

 A(FC)         102.6880             102.6880             102.6880
 A(SD)         -80.2081             -79.5550             159.7631
 A(ORB+DIA)     -0.1709              -0.1622              -0.0125    A(PC) =  -0.1152
 A(ORB)         -0.1713              -0.1626              -0.0125    A(PC) =  -0.1154
 A(DIA)          0.0004               0.0004              -0.0001    A(PC) =   0.0002
             ----------           ----------           ----------
 A(Tot)         22.3090              22.9708             262.4385    A(iso)=  102.5728
 Orientation: 
  X           0.1857541            0.8586783           -0.4776682
  Y           0.4007430           -0.5100653           -0.7610772
  Z          -0.8971625           -0.0500490           -0.4388560

Notes:  (1) The A matrix conforms to the "SAI" spin Hamiltonian convention.
        (2) Tensor is right-handed.


--------------------------------------------------------------------------------
----------------------------------------------------------------------------
                           ORCA EULER ANGLE PROGRAM
----------------------------------------------------------------------------

Only g-tensor available        -->  using g-tensor as reference tensor

Reference tensor               ...  g

g-tensor ordering              ...  |g_min> --> |gx>
                                    |g_mid> --> |gy>
                                    |g_max> --> |gz>

A- and EFG-tensor ordering     ...  the axes |Ax>, |Qx>, |Ay>, etc. are assigned
                                    such that the Euler rotation is minimal. You
                                    can find the respective eigenvalues as Ax,
                                    EFGx, Ay, etc. in the tables below.
                                    The relation of |Ax>, |Ay>,  etc. to Amin, Amid, etc.
                                    (as printed in the ORCA EPR/NMR CALCULATION Output)
                                    is obtained in the detailed printout.

Euler rotation around          ...  z - y - z
   First rotation              -->  by alpha around z
   Second rotation             -->  by beta around y'
   Third rotation              -->  by gamma around z''
   Positive / Negative angle   -->  clockwise / counterclockwise rotation

Plot EFG-tensors                    (-)
Plot HFC-tensors                    (-)
Detailed Printout                   (-)

-------------------------------------------------------------------------
          Euler rotation of hyperfine tensor to g-tensor
-------------------------------------------------------------------------

-------------------------------------------------------------------
 Atom  |   Alpha    Beta    Gamma   |   Ax       Ay       Az 
       |          [degrees]         |           [MHz]         
-------------------------------------------------------------------
  1H       98.9     27.7   -100.5     -63.83   -98.64   -25.57
  2H       43.2      1.0    -37.5     -58.02   -20.77  -101.40
  3H      -79.9     32.1     78.5     -61.06  -100.91   -23.28
  0C       88.6     29.5    -88.9     262.44    22.31    22.97
-------------------------------------------------------------------


Maximum memory used throughout the entire EPRNMR-calculation: 67.6 MB

Timings for individual modules:

Sum of individual times         ...       22.096 sec (=   0.368 min)
GTO integral calculation        ...        3.915 sec (=   0.065 min)  17.7 %
Spin-Orbit-Coupling Matrices    ...        2.962 sec (=   0.049 min)  13.4 %
SCF iterations                  ...        7.788 sec (=   0.130 min)  35.2 %
EPR/NMR calculation             ...        7.430 sec (=   0.124 min)  33.6 %
                             ****ORCA TERMINATED NORMALLY****
TOTAL RUN TIME: 0 days 0 hours 0 minutes 25 seconds 574 msec
