4
# ORCA AIMD Position Step 0, t=0.00 fs, E_Pot=-39.82314971 Hartree, Unit is Angstrom
 C     12.6022894301     -0.6266926546     -7.1846322451
 H     12.3092559322     -1.4837953326     -6.4853588307
 H     13.1769622509      0.2068786471     -6.7587485437
 H     12.0584043831     -0.4595369654     -8.0963961825
4
# ORCA AIMD Position Step 1, t=0.50 fs, E_Pot=-39.82449411 Hartree, Unit is Angstrom
 C     12.6071345502     -0.6305711338     -7.1817788874
 H     12.3122606816     -1.4770836891     -6.5040936341
 H     13.1827497397      0.1892459060     -6.7539453400
 H     12.0447670249     -0.4447373886     -8.0853179405
4
# ORCA AIMD Position Step 2, t=1.00 fs, E_Pot=-39.82533205 Hartree, Unit is Angstrom
 C     12.6119025897     -0.6345588015     -7.1787035763
 H     12.3162063831     -1.4681153711     -6.5250044678
 H     13.1884328800      0.1709589659     -6.7494884205
 H     12.0312267356     -0.4302521810     -8.0743555718
4
# ORCA AIMD Position Step 3, t=1.50 fs, E_Pot=-39.82530728 Hartree, Unit is Angstrom
 C     12.6165598198     -0.6385939466     -7.1755511807
 H     12.3207149789     -1.4581823741     -6.5470319621
 H     13.1944600951      0.1526210755     -6.7450964908
 H     12.0181135608     -0.4161268764     -8.0631235008
4
# ORCA AIMD Position Step 4, t=2.00 fs, E_Pot=-39.82430343 Hartree, Unit is Angstrom
 C     12.6210802226     -0.6425887040     -7.1724820942
 H     12.3252901542     -1.4488851236     -6.5689198246
 H     13.2012961083      0.1348386937     -6.7404761777
 H     12.0057673439     -0.4024131093     -8.0512600274
4
# ORCA AIMD Position Step 5, t=2.50 fs, E_Pot=-39.82258087 Hartree, Unit is Angstrom
 C     12.6254495678     -0.6464330371     -7.1696588008
 H     12.3293473167     -1.4420337018     -6.5893058680
 H     13.2093770621      0.1181589206     -6.7353511442
 H     11.9945046556     -0.3891577069     -8.0384671251
4
# ORCA AIMD Position Step 6, t=3.00 fs, E_Pot=-39.82078297 Hartree, Unit is Angstrom
 C     12.6296657667     -0.6500079601     -7.1672269154
 H     12.3322879605     -1.4394371010     -6.6068881408
 H     13.2190606939      0.1030050770     -6.7294944739
 H     11.9845905669     -0.3763919083     -8.0245376984
4
# ORCA AIMD Position Step 7, t=3.50 fs, E_Pot=-39.81969957 Hartree, Unit is Angstrom
 C     12.6337346349     -0.6532083293     -7.1652925528
 H     12.3336190889     -1.4425877452     -6.6206502501
 H     13.2305808481      0.0896222139     -6.7227594939
 H     11.9762153903     -0.3641210004     -8.0093689311
4
# ORCA AIMD Position Step 8, t=4.00 fs, E_Pot=-39.81983778 Hartree, Unit is Angstrom
 C     12.6376627286     -0.6559697200     -7.1639014530
 H     12.3330868478     -1.4523164695     -6.6300797671
 H     13.2440120853      0.0780470081     -6.7151010913
 H     11.9694816009     -0.3523188619     -7.9929713473
4
# ORCA AIMD Position Step 9, t=4.50 fs, E_Pot=-39.82109428 Hartree, Unit is Angstrom
 C     12.6414515697     -0.6582873785     -7.1630293218
 H     12.3307663056     -1.4685704759     -6.6352793659
 H     13.2592578634      0.0681074768     -6.7065843012
 H     11.9643941471     -0.3409235074     -7.9754645016
4
# ORCA AIMD Position Step 10, t=5.00 fs, E_Pot=-39.82281891 Hartree, Unit is Angstrom
 C     12.6450972259     -0.6602177854     -7.1625875543
 H     12.3270596141     -1.4904207142     -6.6369138209
 H     13.2760580302      0.0594491577     -6.6973801663
 H     11.9608591912     -0.3298368709     -7.9570663727
4
# ORCA AIMD Position Step 11, t=5.50 fs, E_Pot=-39.82421697 Hartree, Unit is Angstrom
 C     12.6485951483     -0.6618628905     -7.1624427402
 H     12.3226006836     -1.5162995521     -6.6360160785
 H     13.2940208867      0.0515884194     -6.6877447208
 H     11.9586893252     -0.3189280644     -7.9380763226
4
# ORCA AIMD Position Step 12, t=6.00 fs, E_Pot=-39.82475195 Hartree, Unit is Angstrom
 C     12.6519469895     -0.6633464253     -7.1624405730
 H     12.3181204236     -1.5443406658     -6.6337552943
 H     13.3126683774      0.0439727894     -6.6779923397
 H     11.9576119634     -0.3080361735     -7.9188490834
4
# ORCA AIMD Position Step 13, t=6.50 fs, E_Pot=-39.82430731 Hartree, Unit is Angstrom
 C     12.6551647842     -0.6647922292     -7.1624272817
 H     12.3143243454     -1.5726878037     -6.6312460298
 H     13.3314853261      0.0360412352     -6.6684638284
 H     11.9572930931     -0.2969803576     -7.8997620924
4
# ORCA AIMD Position Step 14, t=7.00 fs, E_Pot=-39.82311804 Hartree, Unit is Angstrom
 C     12.6582711817     -0.6663112362     -7.1622637228
 H     12.3118124033     -1.5996899767     -6.6294366327
 H     13.3499641828      0.0272790875     -6.6594919252
 H     11.9573703776     -0.2855749928     -7.8811933807
4
# ORCA AIMD Position Step 15, t=7.50 fs, E_Pot=-39.82160451 Hartree, Unit is Angstrom
 C     12.6612952834     -0.6679944613     -7.1618348714
 H     12.3110480053     -1.6240023149     -6.6290698246
 H     13.3676459869      0.0172516415     -6.6513788087
 H     11.9574931019     -0.2736462243     -7.8634699034
4
# ORCA AIMD Position Step 16, t=8.00 fs, E_Pot=-39.82021364 Hartree, Unit is Angstrom
 C     12.6642667903     -0.6699116078     -7.1610540953
 H     12.3123543965     -1.6446050740     -6.6306850290
 H     13.3841492751      0.0056285149     -6.6443754490
 H     11.9573667738     -0.2610540093     -7.8468345383
4
# ORCA AIMD Position Step 17, t=8.50 fs, E_Pot=-39.81930742 Hartree, Unit is Angstrom
 C     12.6672098720     -0.6721115617     -7.1598648830
 H     12.3159271781     -1.6607877589     -6.6346410677
 H     13.3991911733     -0.0078051509     -6.6386690873
 H     11.9567925662     -0.2477132982     -7.8314151078
4
# ORCA AIMD Position Step 18, t=9.00 fs, E_Pot=-39.81910012 Hartree, Unit is Angstrom
 C     12.6701383582     -0.6746230159     -7.1582408828
 H     12.3218470653     -1.6721246643     -6.6411376859
 H     13.4125996070     -0.0231444824     -6.6343736409
 H     11.9556994689     -0.2336151235     -7.8172119433
4
# ORCA AIMD Position Step 19, t=9.50 fs, E_Pot=-39.81963460 Hartree, Unit is Angstrom
 C     12.6730532361     -0.6774550496     -7.1561843914
 H     12.3300919631     -1.6784565519     -6.6502354919
 H     13.4243219657     -0.0403667402     -6.6315260692
 H     11.9541530343     -0.2188358957     -7.8040996642
4
# ORCA AIMD Position Step 20, t=10.00 fs, E_Pot=-39.82078670 Hartree, Unit is Angstrom
 C     12.6759425757     -0.6805969495     -7.1537240708
 H     12.3405415257     -1.6798872998     -6.6618652071
 H     13.4344292377     -0.0593357613     -6.6300840465
 H     11.9523472013     -0.2035381350     -7.7918475886
4
# ORCA AIMD Position Step 21, t=10.50 fs, E_Pot=-39.82228959 Hartree, Unit is Angstrom
 C     12.6787843062     -0.6840176357     -7.1509112368
 H     12.3529793842     -1.6767957803     -6.6758349771
 H     13.4431152580     -0.0798129735     -6.6299321553
 H     11.9505693632     -0.1879541236     -7.7801506376
4
# ORCA AIMD Position Step 22, t=11.00 fs, E_Pot=-39.82377309 Hartree, Unit is Angstrom
 C     12.6815500060     -0.6876636320     -7.1478173242
 H     12.3670835119     -1.6698700000     -6.6918205829
 H     13.4506952878     -0.1014647781     -6.6308813860
 H     11.9491659993     -0.1723683352     -7.7686699919
4
# ORCA AIMD Position Step 23, t=11.50 fs, E_Pot=-39.82482749 Hartree, Unit is Angstrom
 C     12.6842102662     -0.6914568866     -7.1445300268
 H     12.3824208315     -1.6601416107     -6.7093625077
 H     13.4575926291     -0.1238813846     -6.6326806296
 H     11.9484974406     -0.1570899184     -7.7570706498
4
# ORCA AIMD Position Step 24, t=12.00 fs, E_Pot=-39.82510331 Hartree, Unit is Angstrom
 C     12.6867398141     -0.6952923814     -7.1411493512
 H     12.3984466213     -1.6490167328     -6.7278689808
 H     13.4643185870     -0.1466016618     -6.6350328253
 H     11.9488975990     -0.1424255014     -7.7450493071
4
# ORCA AIMD Position Step 25, t=12.50 fs, E_Pot=-39.82445118 Hartree, Unit is Angstrom
 C     12.6891221997     -0.6990389200     -7.1377815483
 H     12.4145198146     -1.6382616590     -6.7466404526
 H     13.4714379445     -0.1691457153     -6.6376180886
 H     11.9506378190     -0.1286516913     -7.7323590653
4
# ORCA AIMD Position Step 26, t=13.00 fs, E_Pot=-39.82306310 Hartree, Unit is Angstrom
 C     12.6913525259     -0.7025454344     -7.1345307794
 H     12.4299422079     -1.6299051028     -6.7649235907
 H     13.4795166899     -0.1910555493     -6.6401216880
 H     11.9539080110     -0.1159974625     -7.7188266803
4
# ORCA AIMD Position Step 27, t=13.50 fs, E_Pot=-39.82150897 Hartree, Unit is Angstrom
 C     12.6934376747     -0.7056577912     -7.1314867879
 H     12.4440350133     -1.6260144335     -6.7820137667
 H     13.4890615523     -0.2119386551     -6.6422683295
 H     11.9587983460     -0.1046246442     -7.7043625041
4
# ORCA AIMD Position Step 28, t=14.00 fs, E_Pot=-39.82054315 Hartree, Unit is Angstrom
 C     12.6953939164     -0.7082468123     -7.1287099029
 H     12.4562456405     -1.6283431330     -6.7973947202
 H     13.5004592352     -0.2315076182     -6.6438574547
 H     11.9652818983     -0.0946072644     -7.6889639958
4
# ORCA AIMD Position Step 29, t=14.50 fs, E_Pot=-39.82069754 Hartree, Unit is Angstrom
 C     12.6972435233     -0.7102402764     -7.1262183771
 H     12.4662483669     -1.6379321885     -6.8108624834
 H     13.5139201711     -0.2496085376     -6.6447903026
 H     11.9732104743     -0.0859202573     -7.6727155813
4
# ORCA AIMD Position Step 30, t=15.00 fs, E_Pot=-39.82192583 Hartree, Unit is Angstrom
 C     12.6990134302     -0.7116471387     -7.1239831157
 H     12.4739960978     -1.6548188794     -6.8225754676
 H     13.5294405433     -0.2662298853     -6.6450823803
 H     11.9823164160     -0.0784327839     -7.6557891444
4
# ORCA AIMD Position Step 31, t=15.50 fs, E_Pot=-39.82361541 Hartree, Unit is Angstrom
 C     12.7007368602     -0.7125604636     -7.1219333247
 H     12.4796983250     -1.6780134674     -6.8330010034
 H     13.5467977390     -0.2814912404     -6.6448606040
 H     11.9922193110     -0.0719074062     -7.6384334412
4
# ORCA AIMD Position Step 32, t=16.00 fs, E_Pot=-39.82496646 Hartree, Unit is Angstrom
 C     12.7024568180     -0.7131383174     -7.1199708143
 H     12.4837357912     -1.7057412373     -6.8427809635
 H     13.5655717029     -0.2956150748     -6.6443454978
 H     12.0024479421     -0.0660136623     -7.6209561685
4
# ORCA AIMD Position Step 33, t=16.50 fs, E_Pot=-39.82542069 Hartree, Unit is Angstrom
 C     12.7042277230     -0.7135721383     -7.1179873942
 H     12.4865574916     -1.7358347730     -6.8525838686
 H     13.5851969516     -0.3088873441     -6.6438214828
 H     12.0124717431     -0.0603521785     -7.6036943603
4
# ORCA AIMD Position Step 34, t=17.00 fs, E_Pot=-39.82486008 Hartree, Unit is Angstrom
 C     12.7061129725     -0.7140557143     -7.1158804062
 H     12.4885955079     -1.7661029456     -6.8629914764
 H     13.6050264047     -0.3216158029     -6.6435998375
 H     12.0217513844     -0.0544974309     -7.5869794607
4
# ORCA AIMD Position Step 35, t=17.50 fs, E_Pot=-39.82354959 Hartree, Unit is Angstrom
 C     12.7081781813     -0.7147623505     -7.1135637128
 H     12.4902170236     -1.7945830719     -6.8744440189
 H     13.6243981082     -0.3340940085     -6.6439838486
 H     12.0298008902     -0.0480540313     -7.5710954716
4
# ORCA AIMD Position Step 36, t=18.00 fs, E_Pot=-39.82195141 Hartree, Unit is Angstrom
 C     12.7104821433     -0.7158313543     -7.1109742343
 H     12.4917078818     -1.8196654526     -6.8872310141
 H     13.6426943127     -0.3465749304     -6.6452403122
 H     12.0362530022     -0.0407197784     -7.5562383553
4
# ORCA AIMD Position Step 37, t=18.50 fs, E_Pot=-39.82053477 Hartree, Unit is Angstrom
 C     12.7130681716     -0.7173618310     -7.1080748027
 H     12.4932749736     -1.8401263075     -6.9015073164
 H     13.6593875658     -0.3592548689     -6.6475794968
 H     12.0409140905     -0.0323427506     -7.5424858657
4
# ORCA AIMD Position Step 38, t=19.00 fs, E_Pot=-39.81964658 Hartree, Unit is Angstrom
 C     12.7159579878     -0.7194116055     -7.1048539067
 H     12.4950568440     -1.8551118561     -6.9173198154
 H     13.6740732456     -0.3722662761     -6.6511444284
 H     12.0437938596     -0.0229571998     -7.5297846012
4
# ORCA AIMD Position Step 39, t=19.50 fs, E_Pot=-39.81945703 Hartree, Unit is Angstrom
 C     12.7191493520     -0.7219991942     -7.1013234639
 H     12.4971324353     -1.8641099699     -6.9346287818
 H     13.6864895684     -0.3856759659     -6.6560035568
 H     12.0451046949     -0.0127900519     -7.5179626283
4
# ORCA AIMD Position Step 40, t=20.00 fs, E_Pot=-39.81996401 Hartree, Unit is Angstrom
 C     12.7226173882     -0.7251081545     -7.0975145687
 H     12.4995284600     -1.8669247483     -6.9533298061
 H     13.6965293133     -0.3994875446     -6.6621508341
 H     12.0452265281     -0.0022318321     -7.5067583005
4
# ORCA AIMD Position Step 41, t=20.50 fs, E_Pot=-39.82102593 Hartree, Unit is Angstrom
 C     12.7263186728     -0.7286920473     -7.0934724687
 H     12.5022217569     -1.8636663803     -6.9732710719
 H     13.7042448969     -0.4136459531     -6.6695085982
 H     12.0446503947      0.0082171748     -7.4958601628
4
# ORCA AIMD Position Step 42, t=21.00 fs, E_Pot=-39.82239850 Hartree, Unit is Angstrom
 C     12.7301966057     -0.7326781820     -7.0892519493
 H     12.5051353734     -1.8547596803     -6.9942648637
 H     13.7098470850     -0.4280437842     -6.6779307491
 H     12.0439193578      0.0180066452     -7.4849474552
4
# ORCA AIMD Position Step 43, t=21.50 fs, E_Pot=-39.82376930 Hartree, Unit is Angstrom
 C     12.7341876282     -0.7369711126     -7.0849114347
 H     12.5081362637     -1.8409623559     -7.0161134108
 H     13.7136990360     -0.4425303299     -6.6872178274
 H     12.0435624646      0.0266053254     -7.4737196373
4
# ORCA AIMD Position Step 44, t=22.00 fs, E_Pot=-39.82480117 Hartree, Unit is Angstrom
 C     12.7382269858     -0.7414529942     -7.0805097436
 H     12.5110210461     -1.8234007631     -7.0386151825
 H     13.7163036122     -0.4569201845     -6.6971186476
 H     12.0440529128      0.0335496179     -7.4619272410
4
# ORCA AIMD Position Step 45, t=22.50 fs, E_Pot=-39.82520785 Hartree, Unit is Angstrom
 C     12.7422543265     -0.7459846508     -7.0761010644
 H     12.5135113359     -1.8035808953     -7.0615958175
 H     13.7182762739     -0.4710086130     -6.7073500890
 H     12.0457731832      0.0384824784     -7.4493810965
4
# ORCA AIMD Position Step 46, t=23.00 fs, E_Pot=-39.82486660 Hartree, Unit is Angstrom
 C     12.7462190562     -0.7504095486     -7.0717301001
 H     12.5152555517     -1.7833538396     -7.0849391692
 H     13.7203043961     -0.4845890764     -6.7176169520
 H     12.0489903980      0.0411834269     -7.4359592824
4
# ORCA AIMD Position Step 47, t=23.50 fs, E_Pot=-39.82393242 Hartree, Unit is Angstrom
 C     12.7500846243     -0.7545630816     -7.0674280086
 H     12.5158467420     -1.7647966391     -7.1086118794
 H     13.7230874575     -0.4974748812     -6.7276334237
 H     12.0538476717      0.0415812502     -7.4216092152
4
# ORCA AIMD Position Step 48, t=24.00 fs, E_Pot=-39.82286017 Hartree, Unit is Angstrom
 C     12.7538310139     -0.7582920711     -7.0632088391
 H     12.5148730510     -1.7499725969     -7.1326812884
 H     13.7272681286     -0.5095213650     -6.7371499033
 H     12.0603532070      0.0397684139     -7.4063449669
4
# ORCA AIMD Position Step 49, t=24.50 fs, E_Pot=-39.82223708 Hartree, Unit is Angstrom
 C     12.7574545542     -0.7614826808     -7.0590692828
 H     12.5119987426     -1.7405853695     -7.1572983347
 H     13.7333580875     -0.5206456784     -6.7459770243
 H     12.0683758348      0.0360075029     -7.3902430728
4
# ORCA AIMD Position Step 50, t=25.00 fs, E_Pot=-39.82245136 Hartree, Unit is Angstrom
 C     12.7609655301     -0.7640897415     -7.0549929482
 H     12.5070590693     -1.7376155239     -7.1826341858
 H     13.7416708690     -0.5308397840     -6.7540026435
 H     12.0776457475      0.0307306225     -7.3734380980
4
# ORCA AIMD Position Step 51, t=25.50 fs, E_Pot=-39.82341996 Hartree, Unit is Angstrom
 C     12.7643847530     -0.7661553702     -7.0509575952
 H     12.5001376768     -1.7410871262     -7.2087972669
 H     13.7522814682     -0.5401729032     -6.7612020824
 H     12.0877580845      0.0245309129     -7.3561095081
4
# ORCA AIMD Position Step 52, t=26.00 fs, E_Pot=-39.82462268 Hartree, Unit is Angstrom
 C     12.7677420722     -0.7678061312     -7.0469441833
 H     12.4915765584     -1.7500835474     -7.2357396475
 H     13.7650125221     -0.5487824385     -6.7676292119
 H     12.0981942279      0.0181358758     -7.3384767163
4
# ORCA AIMD Position Step 53, t=26.50 fs, E_Pot=-39.82542822 Hartree, Unit is Angstrom
 C     12.7710749423     -0.7692278321     -7.0429418290
 H     12.4819250947     -1.7630085392     -7.2632399799
 H     13.7794621257     -0.5568568889     -6.7734062101
 H     12.1083618374      0.0123510848     -7.3207674754
4
# ORCA AIMD Position Step 54, t=27.00 fs, E_Pot=-39.82544524 Hartree, Unit is Angstrom
 C     12.7744281486     -0.7706321479     -7.0389501563
 H     12.4718419256     -1.7779408780     -7.2909182104
 H     13.7950500051     -0.5646122055     -6.7786990046
 H     12.1176501120      0.0079931454     -7.3031995844
4
# ORCA AIMD Position Step 55, t=27.50 fs, E_Pot=-39.82466823 Hartree, Unit is Angstrom
 C     12.7778490522     -0.7722221031     -7.0349787135
 H     12.4619964787     -1.7929703908     -7.3183008599
 H     13.8110915972     -0.5722680346     -6.7836929116
 H     12.1255110501      0.0057902112     -7.2859466699
4
# ORCA AIMD Position Step 56, t=28.00 fs, E_Pot=-39.82339227 Hartree, Unit is Angstrom
 C     12.7813800659     -0.7741666862     -7.0310457432
 H     12.4529964933     -1.8064161119     -7.3448878053
 H     13.8268727399     -0.5800274968     -6.7885699105
 H     12.1315472617      0.0062772084     -7.2691084598
4
# ORCA AIMD Position Step 57, t=28.50 fs, E_Pot=-39.82201861 Hartree, Unit is Angstrom
 C     12.7850499899     -0.7765857453     -7.0271767409
 H     12.4453495509     -1.8169286560     -7.3702078522
 H     13.8417160506     -0.5880632775     -6.7934924063
 H     12.1355875920      0.0097042425     -7.2526883003
4
# ORCA AIMD Position Step 58, t=29.00 fs, E_Pot=-39.82088478 Hartree, Unit is Angstrom
 C     12.7888676402     -0.7795454307     -7.0234031007
 H     12.4394477826     -1.8235098174     -7.3938447021
 H     13.8550344628     -0.5965084153     -6.7985886595
 H     12.1377248863      0.0159925876     -7.2365978091
4
# ORCA AIMD Position Step 59, t=29.50 fs, E_Pot=-39.82018568 Hartree, Unit is Angstrom
 C     12.7928193960     -0.7830608989     -7.0197596068
 H     12.4355703895     -1.8254909727     -7.4154568924
 H     13.8663673903     -0.6054532589     -6.8039478499
 H     12.1383064529      0.0247422455     -7.2206718710
4
# ORCA AIMD Position Step 60, t=30.00 fs, E_Pot=-39.81997960 Hartree, Unit is Angstrom
 C     12.7968715955     -0.7871036509     -7.0162810923
 H     12.4338886329     -1.8225052322     -7.4347891569
 H     13.8754015772     -0.6149463486     -6.8096181907
 H     12.1378794889      0.0352924999     -7.2046991393
4
# ORCA AIMD Position Step 61, t=30.50 fs, E_Pot=-39.82023261 Hartree, Unit is Angstrom
 C     12.8009761743     -0.7916122353     -7.0129988937
 H     12.4344712801     -1.8144574516     -7.4516783187
 H     13.8819826237     -0.6249961903     -6.8156071570
 H     12.1371066905      0.0468213931     -7.1884583539
4
# ORCA AIMD Position Step 62, t=31.00 fs, E_Pot=-39.82085316 Hartree, Unit is Angstrom
 C     12.8050775924     -0.7965019844     -7.0099373287
 H     12.4372854059     -1.8015091579     -7.4660637397
 H     13.8861184206     -0.6355746169     -6.8218838179
 H     12.1366792225      0.0584501336     -7.1717477341
4
# ORCA AIMD Position Step 63, t=31.50 fs, E_Pot=-39.82170069 Hartree, Unit is Angstrom
 C     12.8091195327     -0.8016723422     -7.0071104804
 H     12.4421920170     -1.7840773046     -7.4780036507
 H     13.8879766879     -0.6466209101     -6.8283823548
 H     12.1372435172      0.0693334095     -7.1544036301
4
# ORCA AIMD Position Step 64, t=32.00 fs, E_Pot=-39.82258089 Hartree, Unit is Angstrom
 C     12.8130505364     -0.8070107804     -7.0045194271
 H     12.4489365185     -1.7628448256     -7.4876943591
 H     13.8878748071     -0.6580472778     -6.8350057471
 H     12.1393536827      0.0787222159     -7.1363107700
4
# ORCA AIMD Position Step 65, t=32.50 fs, E_Pot=-39.82325343 Hartree, Unit is Angstrom
 C     12.8168284629     -0.8123941063     -7.0021491668
 H     12.4571353535     -1.7387819484     -7.4955040186
 H     13.8862722292     -0.6697443251     -6.8416308109
 H     12.1434392531      0.0860063898     -7.1174001996
4
# ORCA AIMD Position Step 66, t=33.00 fs, E_Pot=-39.82347999 Hartree, Unit is Angstrom
 C     12.8204245313     -0.8176898774     -6.9999663880
 H     12.4662698157     -1.7131465294     -7.5019967462
 H     13.8837441636     -0.6815887804     -6.8481152212
 H     12.1497896236      0.0907395480     -7.0976446869
4
# ORCA AIMD Position Step 67, t=33.50 fs, E_Pot=-39.82311978 Hartree, Unit is Angstrom
 C     12.8238261134     -0.8227592048     -6.9979184425
 H     12.4756929950     -1.6874538257     -7.5079459219
 H     13.8809477787     -0.6934528605     -6.8543061994
 H     12.1585479040      0.0926514088     -7.0770488299
4
# ORCA AIMD Position Step 68, t=34.00 fs, E_Pot=-39.82224593 Hartree, Unit is Angstrom
 C     12.8270380339     -0.8274632919     -6.9959353961
 H     12.4846598895     -1.6633902352     -7.5143047821
 H     13.8785723572     -0.7052160430     -6.8600494278
 H     12.1697156076      0.0916509008     -7.0556448064
4
# ORCA AIMD Position Step 69, t=34.50 fs, E_Pot=-39.82120244 Hartree, Unit is Angstrom
 C     12.8300815994     -0.8316781390     -6.9939369720
 H     12.4923997299     -1.6426350255     -7.5221229973
 H     13.8772809199     -0.7167764648     -6.8652007806
 H     12.1831507189      0.0878343182     -7.0334809559
4
# ORCA AIMD Position Step 70, t=35.00 fs, E_Pot=-39.82050275 Hartree, Unit is Angstrom
 C     12.8329908473     -0.8353157225     -6.9918456838
 H     12.4982260523     -1.6266036073     -7.5323883754
 H     13.8776442225     -0.7280616741     -6.8696376022
 H     12.1985685737      0.0814917077     -7.0106121594
4
# ORCA AIMD Position Step 71, t=35.50 fs, E_Pot=-39.82055491 Hartree, Unit is Angstrom
 C     12.8358072334     -0.8383470773     -6.9896042486
 H     12.5016623493     -1.6161692452     -7.5458197512
 H     13.8800760825     -0.7390364714     -6.8732684268
 H     12.2155441497      0.0731115340     -6.9870898874
4
# ORCA AIMD Position Step 72, t=36.00 fs, E_Pot=-39.82137872 Hartree, Unit is Angstrom
 C     12.8385747018     -0.8408184412     -6.9871917495
 H     12.5025405255     -1.6114638673     -7.5626787359
 H     13.8847851894     -0.7497051553     -6.8760398720
 H     12.2335202921      0.0633763070     -6.9629512830
4
# ORCA AIMD Position Step 73, t=36.50 fs, E_Pot=-39.82256246 Hartree, Unit is Angstrom
 C     12.8413382453     -0.8428507432     -6.9846311975
 H     12.5010228146     -1.6118609527     -7.5826878627
 H     13.8917477508     -0.7601088552     -6.8779389981
 H     12.2518299391      0.0531369512     -6.9382088744
4
# ORCA AIMD Position Step 74, t=37.00 fs, E_Pot=-39.82352050 Hartree, Unit is Angstrom
 C     12.8441454241     -0.8446222061     -6.9819855537
 H     12.4975402459     -1.6161435776     -7.6050849136
 H     13.9007116636     -0.7703165687     -6.8789906694
 H     12.2697350379      0.0433646741     -6.9128464435
4
# ORCA AIMD Position Step 75, t=37.50 fs, E_Pot=-39.82384302 Hartree, Unit is Angstrom
 C     12.8470466977     -0.8463366997     -6.9793437293
 H     12.4926804169     -1.6227813222     -7.6288075517
 H     13.9112340013     -0.7804147480     -6.8792520752
 H     12.2864972063      0.0350402052     -6.8868065898
4
# ORCA AIMD Position Step 76, t=38.00 fs, E_Pot=-39.82347825 Hartree, Unit is Angstrom
 C     12.8500933087     -0.8481924170     -6.9768048292
 H     12.4870730439     -1.6301923223     -7.6526727755
 H     13.9227323902     -0.7904935450     -6.8788031250
 H     12.3014661201      0.0290284666     -6.8600083370
4
# ORCA AIMD Position Step 77, t=38.50 fs, E_Pot=-39.82267052 Hartree, Unit is Angstrom
 C     12.8533302885     -0.8503530447     -6.9744629378
 H     12.4813034577     -1.6369395475     -7.6755449855
 H     13.9345563345     -0.8006366143     -6.8777369912
 H     12.3141781965      0.0259207203     -6.8323695764
4
# ORCA AIMD Position Step 78, t=39.00 fs, E_Pot=-39.82175928 Hartree, Unit is Angstrom
 C     12.8567883203     -0.8529290355     -6.9723962600
 H     12.4758657309     -1.6418325800     -7.6964361298
 H     13.9460541010     -0.8109138246     -6.8761511469
 H     12.3244336882      0.0259056263     -6.8038450796
4
# ORCA AIMD Position Step 79, t=39.50 fs, E_Pot=-39.82100067 Hartree, Unit is Angstrom
 C     12.8604780274     -0.8559700944     -6.9706604432
 H     12.4711462488     -1.6439595388     -7.7145542355
 H     13.9566283612     -0.8213781478     -6.8741400150
 H     12.3323256041      0.0287085080     -6.7744647239
4
# ORCA AIMD Position Step 80, t=40.00 fs, E_Pot=-39.82050713 Hartree, Unit is Angstrom
 C     12.8643889359     -0.8594693947     -6.9692858043
 H     12.4674232200     -1.6426812353     -7.7293092197
 H     13.9657794481     -0.8320642916     -6.8717891877
 H     12.3382093794      0.0336345736     -6.7443664223
4
# ORCA AIMD Position Step 81, t=40.50 fs, E_Pot=-39.82028844 Hartree, Unit is Angstrom
 C     12.8684930138     -0.8633749510     -6.9682775791
 H     12.4648732975     -1.6376080216     -7.7403108371
 H     13.9731329609     -0.8429907894     -6.8691715947
 H     12.3426266011      0.0396836943     -6.7137991050
4
# ORCA AIMD Position Step 82, t=41.00 fs, E_Pot=-39.82031941 Hartree, Unit is Angstrom
 C     12.8727512716     -0.8676041807     -6.9676181829
 H     12.4635757851     -1.6285789373     -7.7473645679
 H     13.9784538848     -0.8541634910     -6.8663445819
 H     12.3462081476      0.0457068078     -6.6831029991
4
# ORCA AIMD Position Step 83, t=41.50 fs, E_Pot=-39.82057320 Hartree, Unit is Angstrom
 C     12.8771203624     -0.8720575678     -6.9672704367
 H     12.4635136550     -1.6156445449     -7.7504698679
 H     13.9816544123     -0.8655792491     -6.8633482571
 H     12.3495867088      0.0505554397     -6.6526747281
4
# ORCA AIMD Position Step 84, t=42.00 fs, E_Pot=-39.82100918 Hartree, Unit is Angstrom
 C     12.8815582885     -0.8766282291     -6.9671802048
 H     12.4645680795     -1.5990601433     -7.7498293243
 H     13.9827948484     -0.8772304438     -6.8602046652
 H     12.3533332089      0.0531934934     -6.6229276681
4
# ORCA AIMD Position Step 85, t=42.50 fs, E_Pot=-39.82154332 Hartree, Unit is Angstrom
 C     12.8860286201     -0.8812065920     -6.9672773360
 H     12.4665063011     -1.5792893520     -7.7458655629
 H     13.9820783707     -0.8891096446     -6.8569190397
 H     12.3579236596      0.0527612113     -6.5942626422
4
# ORCA AIMD Position Step 86, t=43.00 fs, E_Pot=-39.82203469 Hartree, Unit is Angstrom
 C     12.8905043121     -0.8856840248     -6.9674773668
 H     12.4689706994     -1.5569976283     -7.7392434900
 H     13.9798415140     -0.9012149045     -6.8534787272
 H     12.3637138902      0.0486171611     -6.5670265384
4
# ORCA AIMD Position Step 87, t=43.50 fs, E_Pot=-39.82231658 Hartree, Unit is Angstrom
 C     12.8949698858     -0.8899521814     -6.9676803014
 H     12.4714629976     -1.5330573610     -7.7308901536
 H     13.9765403949     -0.9135549554     -6.8498579401
 H     12.3709429928      0.0403406452     -6.5415023210
4
# ORCA AIMD Position Step 88, t=44.00 fs, E_Pot=-39.82227709 Hartree, Unit is Angstrom
 C     12.8994235673     -0.8939058297     -6.9677730969
 H     12.4733479103     -1.5085120868     -7.7219819339
 H     13.9727227832     -0.9261537994     -6.8460216092
 H     12.3797321954      0.0277342684     -6.5178883960
4
# ORCA AIMD Position Step 89, t=44.50 fs, E_Pot=-39.82195868 Hartree, Unit is Angstrom
 C     12.9038776703     -0.8974486260     -6.9676358670
 H     12.4738840721     -1.4845018934     -7.7138845122
 H     13.9689926871     -0.9390550091     -6.8419310225
 H     12.3900849841      0.0108226413     -6.4962789815
4
# ORCA AIMD Position Step 90, t=45.00 fs, E_Pot=-39.82160575 Hartree, Unit is Angstrom
 C     12.9083563848     -0.9005033158     -6.9671535504
 H     12.4722965347     -1.4621417413     -7.7080150640
 H     13.9659619646     -0.9523223781     -6.8375539234
 H     12.4018894721     -0.0101469584     -6.4766526502
4
# ORCA AIMD Position Step 91, t=45.50 fs, E_Pot=-39.82157432 Hartree, Unit is Angstrom
 C     12.9128903390     -0.9030266872     -6.9662351100
 H     12.4679018434     -1.4423499667     -7.7056294385
 H     13.9641958519     -0.9660389742     -6.8328731938
 H     12.4149125302     -0.0346988013     -6.4588476049
4
# ORCA AIMD Position Step 92, t=46.00 fs, E_Pot=-39.82210195 Hartree, Unit is Angstrom
 C     12.9175090429     -0.9050246193     -6.9648355157
 H     12.4602616078     -1.4256782675     -7.7075734876
 H     13.9641548677     -0.9803017574     -6.8278963559
 H     12.4287940872     -0.0621246776     -6.4425388703
4
# ORCA AIMD Position Step 93, t=46.50 fs, E_Pot=-39.82308947 Hartree, Unit is Angstrom
 C     12.9222345538     -0.9065613195     -6.9629732255
 H     12.4493143108     -1.4122080830     -7.7140838422
 H     13.9661405052     -0.9952110713     -6.8226641040
 H     12.4430447520     -0.0914876706     -6.4272208184
4
# ORCA AIMD Position Step 94, t=47.00 fs, E_Pot=-39.82410607 Hartree, Unit is Angstrom
 C     12.9270794670     -0.9077561907     -6.9607348798
 H     12.4354268967     -1.4015609059     -7.7247374069