Job execution start: Mon Oct 24 23:43:22 CEST 2022
Shared library path: /home/cs681498/orca:/opt/MPI/openmpi-4.1.1/linux/gcc_4.8.5/lib:/opt/MPI/openmpi-4.1.1/linux/gcc_4.8.5/lib/lib32
Slurm Job ID is: 30556529
Slurm Job name is: 16766
ncm0275

                                 *****************
                                 * O   R   C   A *
                                 *****************

                                            #,                                       
                                            ###                                      
                                            ####                                     
                                            #####                                    
                                            ######                                   
                                           ########,                                 
                                     ,,################,,,,,                         
                               ,,#################################,,                 
                          ,,##########################################,,             
                       ,#########################################, ''#####,          
                    ,#############################################,,   '####,        
                  ,##################################################,,,,####,       
                ,###########''''           ''''###############################       
              ,#####''   ,,,,##########,,,,          '''####'''          '####       
            ,##' ,,,,###########################,,,                        '##       
           ' ,,###''''                  '''############,,,                           
         ,,##''                                '''############,,,,        ,,,,,,###''
      ,#''                                            '''#######################'''  
     '                                                          ''''####''''         
             ,#######,   #######,   ,#######,      ##                                
            ,#'     '#,  ##    ##  ,#'     '#,    #''#        ######   ,####,        
            ##       ##  ##   ,#'  ##            #'  '#       #        #'  '#        
            ##       ##  #######   ##           ,######,      #####,   #    #        
            '#,     ,#'  ##    ##  '#,     ,#' ,#      #,         ##   #,  ,#        
             '#######'   ##     ##  '#######'  #'      '#     #####' # '####'        



                  #######################################################
                  #                        -***-                        #
                  #          Department of theory and spectroscopy      #
                  #    Directorship and core code : Frank Neese         #
                  #        Max Planck Institute fuer Kohlenforschung    #
                  #                Kaiser Wilhelm Platz 1               #
                  #                 D-45470 Muelheim/Ruhr               #
                  #                      Germany                        #
                  #                                                     #
                  #                  All rights reserved                #
                  #                        -***-                        #
                  #######################################################


                         Program Version 5.0.3 -  RELEASE  -


 With contributions from (in alphabetic order):
   Daniel Aravena         : Magnetic Suceptibility
   Michael Atanasov       : Ab Initio Ligand Field Theory (pilot matlab implementation)
   Alexander A. Auer      : GIAO ZORA, VPT2 properties, NMR spectrum
   Ute Becker             : Parallelization
   Giovanni Bistoni       : ED, misc. LED, open-shell LED, HFLD
   Martin Brehm           : Molecular dynamics
   Dmytro Bykov           : SCF Hessian
   Vijay G. Chilkuri      : MRCI spin determinant printing, contributions to CSF-ICE
   Dipayan Datta          : RHF DLPNO-CCSD density
   Achintya Kumar Dutta   : EOM-CC, STEOM-CC
   Dmitry Ganyushin       : Spin-Orbit,Spin-Spin,Magnetic field MRCI
   Miquel Garcia          : C-PCM and meta-GGA Hessian, CC/C-PCM, Gaussian charge scheme
   Yang Guo               : DLPNO-NEVPT2, F12-NEVPT2, CIM, IAO-localization
   Andreas Hansen         : Spin unrestricted coupled pair/coupled cluster methods
   Benjamin Helmich-Paris : MC-RPA, TRAH-SCF, COSX integrals
   Lee Huntington         : MR-EOM, pCC
   Robert Izsak           : Overlap fitted RIJCOSX, COSX-SCS-MP3, EOM
   Marcus Kettner         : VPT2
   Christian Kollmar      : KDIIS, OOCD, Brueckner-CCSD(T), CCSD density, CASPT2, CASPT2-K
   Simone Kossmann        : Meta GGA functionals, TD-DFT gradient, OOMP2, MP2 Hessian
   Martin Krupicka        : Initial AUTO-CI
   Lucas Lang             : DCDCAS
   Marvin Lechner         : AUTO-CI (C++ implementation), FIC-MRCC
   Dagmar Lenk            : GEPOL surface, SMD
   Dimitrios Liakos       : Extrapolation schemes; Compound Job, initial MDCI parallelization
   Dimitrios Manganas     : Further ROCIS development; embedding schemes
   Dimitrios Pantazis     : SARC Basis sets
   Anastasios Papadopoulos: AUTO-CI, single reference methods and gradients
   Taras Petrenko         : DFT Hessian,TD-DFT gradient, ASA, ECA, R-Raman, ABS, FL, XAS/XES, NRVS
   Peter Pinski           : DLPNO-MP2, DLPNO-MP2 Gradient
   Christoph Reimann      : Effective Core Potentials
   Marius Retegan         : Local ZFS, SOC
   Christoph Riplinger    : Optimizer, TS searches, QM/MM, DLPNO-CCSD(T), (RO)-DLPNO pert. Triples
   Tobias Risthaus        : Range-separated hybrids, TD-DFT gradient, RPA, STAB
   Michael Roemelt        : Original ROCIS implementation
   Masaaki Saitow         : Open-shell DLPNO-CCSD energy and density
   Barbara Sandhoefer     : DKH picture change effects
   Avijit Sen             : IP-ROCIS
   Kantharuban Sivalingam : CASSCF convergence, NEVPT2, FIC-MRCI
   Bernardo de Souza      : ESD, SOC TD-DFT
   Georgi Stoychev        : AutoAux, RI-MP2 NMR, DLPNO-MP2 response
   Willem Van den Heuvel  : Paramagnetic NMR
   Boris Wezisla          : Elementary symmetry handling
   Frank Wennmohs         : Technical directorship


 We gratefully acknowledge several colleagues who have allowed us to
 interface, adapt or use parts of their codes:
   Stefan Grimme, W. Hujo, H. Kruse, P. Pracht,  : VdW corrections, initial TS optimization,
                  C. Bannwarth, S. Ehlert          DFT functionals, gCP, sTDA/sTD-DF
   Ed Valeev, F. Pavosevic, A. Kumar             : LibInt (2-el integral package), F12 methods
   Garnet Chan, S. Sharma, J. Yang, R. Olivares  : DMRG
   Ulf Ekstrom                                   : XCFun DFT Library
   Mihaly Kallay                                 : mrcc  (arbitrary order and MRCC methods)
   Jiri Pittner, Ondrej Demel                    : Mk-CCSD
   Frank Weinhold                                : gennbo (NPA and NBO analysis)
   Christopher J. Cramer and Donald G. Truhlar   : smd solvation model
   Lars Goerigk                                  : TD-DFT with DH, B97 family of functionals
   V. Asgeirsson, H. Jonsson                     : NEB implementation
   FAccTs GmbH                                   : IRC, NEB, NEB-TS, DLPNO-Multilevel, CI-OPT
                                                   MM, QMMM, 2- and 3-layer-ONIOM, Crystal-QMMM,
                                                   LR-CPCM, SF, NACMEs, symmetry and pop. for TD-DFT,
                                                   nearIR, NL-DFT gradient (VV10), updates on ESD,
                                                   ML-optimized integration grids
   S Lehtola, MJT Oliveira, MAL Marques          : LibXC Library
   Liviu Ungur et al                             : ANISO software


 Your calculation uses the libint2 library for the computation of 2-el integrals
 For citations please refer to: http://libint.valeyev.net

 Your ORCA version has been built with support for libXC version: 5.1.0
 For citations please refer to: https://tddft.org/programs/libxc/

 This ORCA versions uses:
   CBLAS   interface :  Fast vector & matrix operations
   LAPACKE interface :  Fast linear algebra routines
   SCALAPACK package :  Parallel linear algebra routines
   Shared memory     :  Shared parallel matrices
   BLAS/LAPACK       :  OpenBLAS 0.3.15  USE64BITINT DYNAMIC_ARCH NO_AFFINITY SkylakeX SINGLE_THREADED
        Core in use  :  SkylakeX
   Copyright (c) 2011-2014, The OpenBLAS Project


================================================================================

----- Orbital basis set information -----
Your calculation utilizes the basis: EPR-III
   V. Barone, in Recent Advances in Density Functional Methods, Part 1 (ed. D. P. Chong), World Scientific, Singapore, 1995, p. 287.
   N. Rega, M. Cossi and V. Barone, J. Chem. Phys. 105, 11060 (1996).

----- AuxJ basis set information -----
Your calculation utilizes the AutoAux generation procedure.
  G. L. Stoychev, A. A. Auer, F. Neese, J. Chem. Theory Comput. 13, 554 (2017)

----- AuxC basis set information -----
Your calculation utilizes the AutoAux generation procedure.
  G. L. Stoychev, A. A. Auer, F. Neese, J. Chem. Theory Comput. 13, 554 (2017)

----- AuxJK basis set information -----
Your calculation utilizes the AutoAux generation procedure.
  G. L. Stoychev, A. A. Auer, F. Neese, J. Chem. Theory Comput. 13, 554 (2017)

================================================================================
                                        WARNINGS
                       Please study these warnings very carefully!
================================================================================


WARNING: your system is open-shell and RHF/RKS was chosen
  ===> : WILL SWITCH to UHF/UKS


INFO   : the flag for use of the SHARK integral package has been found!

================================================================================
                                       INPUT FILE
================================================================================
NAME = /home/rwth0701/scratch/cs681498/orcajob__30556529-NGU9/16766.inp
|  1> !B3LYP EPR-III Autoaux
|  2> !PAL4
|  3> 
|  4> * xyz 0 2
|  5>  C    -77.3717505102   -103.1835537222    -29.7386362063
|  6>  H    -77.0175185905   -104.1924705354    -29.8212435529
|  7>  H    -76.7779659463   -102.3516198244    -29.6331337293
|  8>  H    -78.4323835246   -102.8895801089    -29.7498675467
|  9> *
| 10> 
| 11> %EPRNMR
| 12>         GTENSOR   TRUE
| 13>         NUCLEI    = ALL H {AISO, ADIP, AORB}
| 14>         NUCLEI    = ALL C {AISO, ADIP, AORB}
| 15> END
| 16> 
| 17> 
| 18>                          ****END OF INPUT****
================================================================================

                       ****************************
                       * Single Point Calculation *
                       ****************************

---------------------------------
CARTESIAN COORDINATES (ANGSTROEM)
---------------------------------
  C    -77.371751  -103.183554  -29.738636
  H    -77.017519  -104.192471  -29.821244
  H    -76.777966  -102.351620  -29.633134
  H    -78.432384  -102.889580  -29.749868

----------------------------
CARTESIAN COORDINATES (A.U.)
----------------------------
  NO LB      ZA    FRAG     MASS         X           Y           Z
   0 C     6.0000    0    12.011  -146.211419  -194.988658  -56.197878
   1 H     1.0000    0     1.008  -145.542018  -196.895235  -56.353983
   2 H     1.0000    0     1.008  -145.089329  -193.416531  -55.998507
   3 H     1.0000    0     1.008  -148.215725  -194.433128  -56.219102

--------------------------------
INTERNAL COORDINATES (ANGSTROEM)
--------------------------------
 C      0   0   0     0.000000000000     0.00000000     0.00000000
 H      1   0   0     1.072481870525     0.00000000     0.00000000
 H      1   2   0     1.027533401544   125.35891698     0.00000000
 H      1   2   3     1.100676618975   124.66269279   180.32124549

---------------------------
INTERNAL COORDINATES (A.U.)
---------------------------
 C      0   0   0     0.000000000000     0.00000000     0.00000000
 H      1   0   0     2.026697018887     0.00000000     0.00000000
 H      1   2   0     1.941756722374   125.35891698     0.00000000
 H      1   2   3     2.079977371874   124.66269279   180.32124549

---------------------
BASIS SET INFORMATION
---------------------
There are 2 groups of distinct atoms

 Group   1 Type C   : 12s8p2d1f contracted to 8s5p2d1f pattern {51111111/41111/11/1}
 Group   2 Type H   : 7s2p contracted to 5s2p pattern {31111/11}

Atom   0C    basis set group =>   1
Atom   1H    basis set group =>   2
Atom   2H    basis set group =>   2
Atom   3H    basis set group =>   2
---------------------------------
AUXILIARY/J BASIS SET INFORMATION
---------------------------------
There are 2 groups of distinct atoms

 Group   1 Type C   : 20s17p16d8f3g contracted to 20s17p16d8f3g pattern {11111111111111111111/11111111111111111/1111111111111111/11111111/111}
 Group   2 Type H   : 17s7p3d contracted to 17s7p3d pattern {11111111111111111/1111111/111}

Atom   0C    basis set group =>   1
Atom   1H    basis set group =>   2
Atom   2H    basis set group =>   2
Atom   3H    basis set group =>   2
---------------------------------
AUXILIARY/C BASIS SET INFORMATION
---------------------------------
There are 2 groups of distinct atoms

 Group   1 Type C   : 20s17p16d8f3g contracted to 20s17p16d8f3g pattern {11111111111111111111/11111111111111111/1111111111111111/11111111/111}
 Group   2 Type H   : 17s7p3d contracted to 17s7p3d pattern {11111111111111111/1111111/111}

Atom   0C    basis set group =>   1
Atom   1H    basis set group =>   2
Atom   2H    basis set group =>   2
Atom   3H    basis set group =>   2
----------------------------------
AUXILIARY/JK BASIS SET INFORMATION
----------------------------------
There are 2 groups of distinct atoms

 Group   1 Type C   : 20s17p16d8f3g contracted to 20s17p16d8f3g pattern {11111111111111111111/11111111111111111/1111111111111111/11111111/111}
 Group   2 Type H   : 17s7p3d contracted to 17s7p3d pattern {11111111111111111/1111111/111}

Atom   0C    basis set group =>   1
Atom   1H    basis set group =>   2
Atom   2H    basis set group =>   2
Atom   3H    basis set group =>   2


           ************************************************************
           *        Program running with 4 parallel MPI-processes     *
           *              working on a common directory               *
           ************************************************************
------------------------------------------------------------------------------
                           ORCA GTO INTEGRAL CALCULATION
                           -- RI-GTO INTEGRALS CHOSEN --
------------------------------------------------------------------------------
------------------------------------------------------------------------------
                   ___                                                        
                  /   \      - P O W E R E D   B Y -                         
                 /     \                                                     
                 |  |  |   _    _      __       _____    __    __             
                 |  |  |  | |  | |    /  \     |  _  \  |  |  /  |          
                  \  \/   | |  | |   /    \    | | | |  |  | /  /          
                 / \  \   | |__| |  /  /\  \   | |_| |  |  |/  /          
                |  |  |   |  __  | /  /__\  \  |    /   |      \           
                |  |  |   | |  | | |   __   |  |    \   |  |\   \          
                \     /   | |  | | |  |  |  |  | |\  \  |  | \   \       
                 \___/    |_|  |_| |__|  |__|  |_| \__\ |__|  \__/        
                                                                              
                      - O R C A' S   B I G   F R I E N D -                    
                                      &                                       
                       - I N T E G R A L  F E E D E R -                       
                                                                              
 v1 FN, 2020, v2 2021                                                         
------------------------------------------------------------------------------


Reading SHARK input file /home/rwth0701/scratch/cs681498/orcajob__30556529-NGU9/16766.SHARKINP.tmp ... ok
----------------------
SHARK INTEGRAL PACKAGE
----------------------

Number of atoms                             ...      4
Number of basis functions                   ...     73
Number of shells                            ...     37
Maximum angular momentum                    ...      3
Integral batch strategy                     ... SHARK/LIBINT Hybrid
RI-J (if used) integral strategy            ... SPLIT-RIJ (Revised 2003 algorithm where possible)
Printlevel                                  ...      1
Contraction scheme used                     ... SEGMENTED contraction
Coulomb Range Separation                    ... NOT USED
Exchange Range Separation                   ... NOT USED
Finite Nucleus Model                        ... NOT USED
Auxiliary Coulomb fitting basis             ... AVAILABLE
   # of basis functions in Aux-J            ...    393
   # of shells in Aux-J                     ...    145
   Maximum angular momentum in Aux-J        ...      4
Auxiliary J/K fitting basis                 ... AVAILABLE
   # of basis functions in Aux-JK           ...    393
   # of shells in Aux-JK                    ...    145
   Maximum angular momentum in Aux-JK       ...      4
Auxiliary Correlation fitting basis         ... AVAILABLE
   # of basis functions in Aux-C            ...    393
   # of shells in Aux-C                     ...    145
   Maximum angular momentum in Aux-C        ...      4
Auxiliary 'external' fitting basis          ... NOT available
Integral threshold                          ...     1.000000e-10
Primitive cut-off                           ...     1.000000e-11
Primitive pair pre-selection threshold      ...     1.000000e-11

Calculating pre-screening integrals         ... done (  0.0 sec) Dimension = 37
Organizing shell pair data                  ... done (  0.0 sec)
Shell pair information
Total number of shell pairs                 ...       703
Shell pairs after pre-screening             ...       688
Total number of primitive shell pairs       ...      1300
Primitive shell pairs kept                  ...      1183
          la=0 lb=0:    261 shell pairs
          la=1 lb=0:    253 shell pairs
          la=1 lb=1:     66 shell pairs
          la=2 lb=0:     46 shell pairs
          la=2 lb=1:     22 shell pairs
          la=2 lb=2:      3 shell pairs
          la=3 lb=0:     23 shell pairs
          la=3 lb=1:     11 shell pairs
          la=3 lb=2:      2 shell pairs
          la=3 lb=3:      1 shell pairs

Calculating one electron integrals          ... done (  0.0 sec)
Calculating RI/J V-Matrix + Cholesky decomp.... done (  0.1 sec)
Calculating RI/JK V-Matrix + Cholesky decomp... done (  0.1 sec)
Calculating RI/C V-Matrix + Cholesky decomp.... done (  0.1 sec)
Calculating Nuclear repulsion               ... done (  0.0 sec) ENN=      9.797159861901 Eh

SHARK setup successfully completed in   0.6 seconds

Maximum memory used throughout the entire GTOINT-calculation: 13.7 MB


           ************************************************************
           *        Program running with 4 parallel MPI-processes     *
           *              working on a common directory               *
           ************************************************************
-------------------------------------------------------------------------------
                                 ORCA SCF
-------------------------------------------------------------------------------

------------
SCF SETTINGS
------------
Hamiltonian:
 Density Functional     Method          .... DFT(GTOs)
 Exchange Functional    Exchange        .... B88
   X-Alpha parameter    XAlpha          ....  0.666667
   Becke's b parameter  XBeta           ....  0.004200
 Correlation Functional Correlation     .... LYP
 LDA part of GGA corr.  LDAOpt          .... VWN-5
 Gradients option       PostSCFGGA      .... off
 Hybrid DFT is turned on
   Fraction HF Exchange ScalHFX         ....  0.200000
   Scaling of DF-GGA-X  ScalDFX         ....  0.720000
   Scaling of DF-GGA-C  ScalDFC         ....  0.810000
   Scaling of DF-LDA-C  ScalLDAC        ....  1.000000
   Perturbative correction              ....  0.000000
   Density functional embedding theory  .... OFF
   NL short-range parameter             ....  4.800000
 RI-approximation to the Coulomb term is turned on
   Number of AuxJ basis functions       .... 393
   RIJ-COSX (HFX calculated with COS-X)).... on


General Settings:
 Integral files         IntName         .... /home/rwth0701/scratch/cs681498/orcajob__30556529-NGU9/16766
 Hartree-Fock type      HFTyp           .... UHF
 Total Charge           Charge          ....    0
 Multiplicity           Mult            ....    2
 Number of Electrons    NEL             ....    9
 Basis Dimension        Dim             ....   73
 Nuclear Repulsion      ENuc            ....      9.7971598619 Eh

Convergence Acceleration:
 DIIS                   CNVDIIS         .... on
   Start iteration      DIISMaxIt       ....    12
   Startup error        DIISStart       ....  0.200000
   # of expansion vecs  DIISMaxEq       ....     5
   Bias factor          DIISBfac        ....   1.050
   Max. coefficient     DIISMaxC        ....  10.000
 Trust-Rad. Augm. Hess. CNVTRAH         .... auto
   Auto Start mean grad. ratio tolernc. ....  1.125000
   Auto Start start iteration           ....    20
   Auto Start num. interpolation iter.  ....    10
   Max. Number of Micro iterations      ....    16
   Max. Number of Macro iterations      .... Maxiter - #DIIS iter
   Number of Davidson start vectors     ....     2
   Converg. threshold I  (grad. norm)   ....   5.000e-05
   Converg. threshold II (energy diff.) ....   1.000e-06
   Grad. Scal. Fac. for Micro threshold ....   0.100
   Minimum threshold for Micro iter.    ....   0.010
   NR start threshold (gradient norm)   ....   0.001
   Initial trust radius                 ....   0.400
   Minimum AH scaling param. (alpha)    ....   1.000
   Maximum AH scaling param. (alpha)    .... 1000.000
   Orbital update algorithm             .... Taylor
   White noise on init. David. guess    .... on
   Maximum white noise                  ....   0.010
   Quad. conv. algorithm                .... NR
 SOSCF                  CNVSOSCF        .... off
 Level Shifting         CNVShift        .... on
   Level shift para.    LevelShift      ....    0.2500
   Turn off err/grad.   ShiftErr        ....    0.0010
 Zerner damping         CNVZerner       .... off
 Static damping         CNVDamp         .... on
   Fraction old density DampFac         ....    0.7000
   Max. Damping (<1)    DampMax         ....    0.9800
   Min. Damping (>=0)   DampMin         ....    0.0000
   Turn off err/grad.   DampErr         ....    0.1000
 Fernandez-Rico         CNVRico         .... off

SCF Procedure:
 Maximum # iterations   MaxIter         ....   125
 SCF integral mode      SCFMode         .... Direct
   Integral package                     .... SHARK and LIBINT hybrid scheme
 Reset frequency        DirectResetFreq ....    20
 Integral Threshold     Thresh          ....  1.000e-10 Eh
 Primitive CutOff       TCut            ....  1.000e-11 Eh

Convergence Tolerance:
 Convergence Check Mode ConvCheckMode   .... Total+1el-Energy
 Convergence forced     ConvForced      .... 0
 Energy Change          TolE            ....  1.000e-06 Eh
 1-El. energy change                    ....  1.000e-03 Eh
 DIIS Error             TolErr          ....  1.000e-06


Diagonalization of the overlap matrix:
Smallest eigenvalue                        ... 1.499e-03
Time for diagonalization                   ...    0.002 sec
Threshold for overlap eigenvalues          ... 1.000e-08
Number of eigenvalues below threshold      ... 0
Time for construction of square roots      ...    0.013 sec
Total time needed                          ...    0.015 sec

Time for model grid setup =    0.066 sec

------------------------------
INITIAL GUESS: MODEL POTENTIAL
------------------------------
Loading Hartree-Fock densities                     ... done
Calculating cut-offs                               ... done
Initializing the effective Hamiltonian             ... done
Setting up the integral package (SHARK)            ... done
Starting the Coulomb interaction                   ... done (   0.0 sec)
Reading the grid                                   ... done
Mapping shells                                     ... done
Starting the XC term evaluation                    ... done (   0.0 sec)
  promolecular density results
     # of electrons  =      8.998925584
     EX              =     -5.977253721
     EC              =     -0.260832538
     EX+EC           =     -6.238086259
Transforming the Hamiltonian                       ... done (   0.0 sec)
Diagonalizing the Hamiltonian                      ... done (   0.0 sec)
Back transforming the eigenvectors                 ... done (   0.0 sec)
Now organizing SCF variables                       ... done
                      ------------------
                      INITIAL GUESS DONE (   0.1 sec)
                      ------------------
-------------------
DFT GRID GENERATION
-------------------

General Integration Accuracy     IntAcc      ... 4.388
Radial Grid Type                 RadialGrid  ... OptM3 with GC (2021)
Angular Grid (max. ang.)         AngularGrid ... 4 (Lebedev-302)
Angular grid pruning method      GridPruning ... 4 (adaptive)
Weight generation scheme         WeightScheme... Becke
Basis function cutoff            BFCut       ... 1.0000e-10
Integration weight cutoff        WCut        ... 1.0000e-14
Angular grids for H and He will be reduced by one unit
Partially contracted basis set               ... off
Rotationally invariant grid construction     ... off

Total number of grid points                  ...    17040
Total number of batches                      ...      268
Average number of points per batch           ...       63
Average number of grid points per atom       ...     4260
Time for grid setup =    0.147 sec

--------------------
COSX GRID GENERATION
--------------------

GRIDX 1
-------
General Integration Accuracy     IntAcc      ... 3.816
Radial Grid Type                 RadialGrid  ... OptM3 with GC (2021)
Angular Grid (max. ang.)         AngularGrid ... 1 (Lebedev-50)
Angular grid pruning method      GridPruning ... 4 (adaptive)
Weight generation scheme         WeightScheme... Becke
Basis function cutoff            BFCut       ... 1.0000e-10
Integration weight cutoff        WCut        ... 1.0000e-14
Angular grids for H and He will be reduced by one unit
Partially contracted basis set               ... on
Rotationally invariant grid construction     ... off

Total number of grid points                  ...     2147
Total number of batches                      ...       35
Average number of points per batch           ...       61
Average number of grid points per atom       ...      537
UseSFitting                                  ... on

GRIDX 2
-------
General Integration Accuracy     IntAcc      ... 4.020
Radial Grid Type                 RadialGrid  ... OptM3 with GC (2021)
Angular Grid (max. ang.)         AngularGrid ... 2 (Lebedev-110)
Angular grid pruning method      GridPruning ... 4 (adaptive)
Weight generation scheme         WeightScheme... Becke
Basis function cutoff            BFCut       ... 1.0000e-10
Integration weight cutoff        WCut        ... 1.0000e-14
Angular grids for H and He will be reduced by one unit
Partially contracted basis set               ... on
Rotationally invariant grid construction     ... off

Total number of grid points                  ...     5057
Total number of batches                      ...       82
Average number of points per batch           ...       61
Average number of grid points per atom       ...     1264
UseSFitting                                  ... on

GRIDX 3
-------
General Integration Accuracy     IntAcc      ... 4.338
Radial Grid Type                 RadialGrid  ... OptM3 with GC (2021)
Angular Grid (max. ang.)         AngularGrid ... 3 (Lebedev-194)
Angular grid pruning method      GridPruning ... 4 (adaptive)
Weight generation scheme         WeightScheme... Becke
Basis function cutoff            BFCut       ... 1.0000e-10
Integration weight cutoff        WCut        ... 1.0000e-14
Angular grids for H and He will be reduced by one unit
Partially contracted basis set               ... on
Rotationally invariant grid construction     ... off

Total number of grid points                  ...    11709
Total number of batches                      ...      185
Average number of points per batch           ...       63
Average number of grid points per atom       ...     2927
UseSFitting                                  ... on

Time for X-Grid setup             =    0.254 sec

--------------
SCF ITERATIONS
--------------
ITER       Energy         Delta-E        Max-DP      RMS-DP      [F,P]     Damp
               ***  Starting incremental Fock matrix formation  ***
  0    -39.7792596540   0.000000000000 0.01600391  0.00051634  0.0943382 0.7000
  1    -39.7993849137  -0.020125259681 0.01003771  0.00038426  0.0498218 0.7000
                               ***Turning on DIIS***
  2    -39.8083584959  -0.008973582265 0.01619773  0.00067050  0.0203765 0.0000
  3    -39.8206253844  -0.012266888448 0.00889791  0.00028807  0.0292025 0.0000
  4    -39.8242987482  -0.003673363839 0.00311542  0.00008065  0.0060322 0.0000
  5    -39.8244491235  -0.000150375249 0.00110219  0.00003281  0.0019776 0.0000
  6    -39.8244664915  -0.000017367989 0.00089602  0.00002471  0.0008243 0.0000
               *** Restarting incremental Fock matrix formation ***
                                   *** Resetting DIIS ***
  7    -39.8244695384  -0.000003046926 0.00007106  0.00000297  0.0000901 0.0000
                 **** Energy Check signals convergence ****

               *****************************************************
               *                     SUCCESS                       *
               *           SCF CONVERGED AFTER   8 CYCLES          *
               *****************************************************

Old exchange energy                            =     -1.244326015 Eh
New exchange energy                            =     -1.244328276 Eh
Exchange energy change after final integration =     -0.000002261 Eh
Total energy after final integration           =    -39.824471875 Eh
Final COS-X integration done in                =     0.184 sec

----------------
TOTAL SCF ENERGY
----------------

Total Energy       :          -39.82447188 Eh           -1083.67897 eV

Components:
Nuclear Repulsion  :            9.79715986 Eh             266.59427 eV
Electronic Energy  :          -49.62163174 Eh           -1350.27325 eV
One Electron Energy:          -71.87300186 Eh           -1955.76381 eV
Two Electron Energy:           22.25137012 Eh             605.49056 eV
Max COSX asymmetry :            0.00000005 Eh               0.00000 eV

Virial components:
Potential Energy   :          -79.50729290 Eh           -2163.50343 eV
Kinetic Energy     :           39.68282103 Eh            1079.82446 eV
Virial Ratio       :            2.00356958


DFT components:
N(Alpha)           :        4.999999995208 electrons
N(Beta)            :        4.000000569666 electrons
N(Total)           :        9.000000564875 electrons
E(X)               :       -4.924044441810 Eh       
E(C)               :       -0.310350986585 Eh       
E(XC)              :       -5.234395428395 Eh       
DFET-embed. en.    :        0.000000000000 Eh       

---------------
SCF CONVERGENCE
---------------

  Last Energy change         ...   -7.6030e-08  Tolerance :   1.0000e-06
  Last MAX-Density change    ...    0.0000e+00  Tolerance :   1.0000e-05
  Last RMS-Density change    ...    0.0000e+00  Tolerance :   1.0000e-06
  Last DIIS Error            ...    6.5772e-05  Tolerance :   1.0000e-06

             **** THE GBW FILE WAS UPDATED (/home/rwth0701/scratch/cs681498/orcajob__30556529-NGU9/16766.gbw) ****
             **** DENSITY /home/rwth0701/scratch/cs681498/orcajob__30556529-NGU9/16766.scfp WAS UPDATED ****
             **** ENERGY FILE WAS UPDATED (/home/rwth0701/scratch/cs681498/orcajob__30556529-NGU9/16766.en.tmp) ****
----------------------
UHF SPIN CONTAMINATION
----------------------

Warning: in a DFT calculation there is little theoretical justification to 
         calculate <S**2> as in Hartree-Fock theory. We will do it anyways
         but you should keep in mind that the values have only limited relevance

Expectation value of <S**2>     :     0.753522
Ideal value S*(S+1) for S=0.5   :     0.750000
Deviation                       :     0.003522

             **** THE GBW FILE WAS UPDATED (/home/rwth0701/scratch/cs681498/orcajob__30556529-NGU9/16766.gbw) ****
             **** DENSITY /home/rwth0701/scratch/cs681498/orcajob__30556529-NGU9/16766.scfp WAS UPDATED ****
----------------
ORBITAL ENERGIES
----------------
                 SPIN UP ORBITALS
  NO   OCC          E(Eh)            E(eV) 
   0   1.0000     -10.180058      -277.0135 
   1   1.0000      -0.692174       -18.8350 
   2   1.0000      -0.440633       -11.9902 
   3   1.0000      -0.409949       -11.1553 
   4   1.0000      -0.234754        -6.3880 
   5   0.0000       0.001294         0.0352 
   6   0.0000       0.035159         0.9567 
   7   0.0000       0.038319         1.0427 
   8   0.0000       0.047548         1.2938 
   9   0.0000       0.088147         2.3986 
  10   0.0000       0.091870         2.4999 
  11   0.0000       0.102788         2.7970 
  12   0.0000       0.220133         5.9901 
  13   0.0000       0.224374         6.1055 
  14   0.0000       0.246743         6.7142 
  15   0.0000       0.276400         7.5212 
  16   0.0000       0.300059         8.1650 
  17   0.0000       0.321140         8.7387 
  18   0.0000       0.354712         9.6522 
  19   0.0000       0.550776        14.9874 
  20   0.0000       0.571602        15.5541 
  21   0.0000       0.734258        19.9802 
  22   0.0000       0.742742        20.2110 
  23   0.0000       0.765503        20.8304 
  24   0.0000       0.833831        22.6897 
  25   0.0000       0.881890        23.9975 
  26   0.0000       0.922915        25.1138 
  27   0.0000       0.947455        25.7816 
  28   0.0000       0.964767        26.2526 
  29   0.0000       1.060454        28.8564 
  30   0.0000       1.062761        28.9192 
  31   0.0000       1.131962        30.8023 
  32   0.0000       1.166308        31.7369 
  33   0.0000       1.171609        31.8811 
  34   0.0000       1.462563        39.7984 
  35   0.0000       1.477966        40.2175 
  36   0.0000       1.521449        41.4007 
  37   0.0000       1.709058        46.5058 
  38   0.0000       1.759031        47.8657 
  39   0.0000       1.770511        48.1781 
  40   0.0000       2.708702        73.7075 
  41   0.0000       2.729825        74.2823 
  42   0.0000       2.874624        78.2225 
  43   0.0000       2.893205        78.7281 
  44   0.0000       2.930846        79.7524 
  45   0.0000       2.984057        81.2003 
  46   0.0000       2.993546        81.4585 
  47   0.0000       3.154677        85.8431 
  48   0.0000       3.177871        86.4743 
  49   0.0000       3.245131        88.3045 
  50   0.0000       3.256410        88.6114 
  51   0.0000       3.716486       101.1307 
  52   0.0000       3.746898       101.9583 
  53   0.0000       3.801323       103.4393 
  54   0.0000       3.966857       107.9437 
  55   0.0000       3.977722       108.2393 
  56   0.0000       4.078519       110.9822 
  57   0.0000       4.175202       113.6130 
  58   0.0000       4.185462       113.8922 
  59   0.0000       4.214223       114.6748 
  60   0.0000       4.671453       127.1167 
  61   0.0000       5.019165       136.5784 
  62   0.0000       5.365983       146.0158 
  63   0.0000       5.508424       149.8918 
  64   0.0000       5.617537       152.8610 
  65   0.0000       6.075203       165.3147 
  66   0.0000       6.195858       168.5979 
  67   0.0000       7.802574       212.3188 
  68   0.0000      29.105483       792.0005 
  69   0.0000      37.154786      1011.0331 
  70   0.0000      37.224330      1012.9255 
  71   0.0000      37.257032      1013.8154 
  72   0.0000     133.570631      3634.6416 

                 SPIN DOWN ORBITALS
  NO   OCC          E(Eh)            E(eV) 
   0   1.0000     -10.165699      -276.6227 
   1   1.0000      -0.652943       -17.7675 
   2   1.0000      -0.431106       -11.7310 
   3   1.0000      -0.400177       -10.8894 
   4   0.0000      -0.077493        -2.1087 
   5   0.0000       0.004321         0.1176 
   6   0.0000       0.034794         0.9468 
   7   0.0000       0.037880         1.0308 
   8   0.0000       0.060764         1.6535 
   9   0.0000       0.089886         2.4459 
  10   0.0000       0.094224         2.5640 
  11   0.0000       0.104982         2.8567 
  12   0.0000       0.221118         6.0169 
  13   0.0000       0.226036         6.1507 
  14   0.0000       0.266342         7.2475 
  15   0.0000       0.305111         8.3025 
  16   0.0000       0.310703         8.4547 
  17   0.0000       0.327354         8.9078 
  18   0.0000       0.367302         9.9948 
  19   0.0000       0.577593        15.7171 
  20   0.0000       0.599814        16.3218 
  21   0.0000       0.735543        20.0151 
  22   0.0000       0.745438        20.2844 
  23   0.0000       0.790444        21.5091 
  24   0.0000       0.832520        22.6540 
  25   0.0000       0.888066        24.1655 
  26   0.0000       0.929044        25.2806 
  27   0.0000       0.962282        26.1850 
  28   0.0000       0.984478        26.7890 
  29   0.0000       1.082931        29.4680 
  30   0.0000       1.119819        30.4718 
  31   0.0000       1.155331        31.4382 
  32   0.0000       1.179464        32.0949 
  33   0.0000       1.183453        32.2034 
  34   0.0000       1.476885        40.1881 
  35   0.0000       1.490992        40.5720 
  36   0.0000       1.532923        41.7130 
  37   0.0000       1.714863        46.6638 
  38   0.0000       1.765322        48.0368 
  39   0.0000       1.779060        48.4107 
  40   0.0000       2.749601        74.8204 
  41   0.0000       2.770610        75.3921 
  42   0.0000       2.877543        78.3019 
  43   0.0000       2.923699        79.5579 
  44   0.0000       2.965612        80.6984 
  45   0.0000       3.007853        81.8478 
  46   0.0000       3.046246        82.8926 
  47   0.0000       3.205273        87.2199 
  48   0.0000       3.227690        87.8299 
  49   0.0000       3.301616        89.8415 
  50   0.0000       3.312800        90.1459 
  51   0.0000       3.748075       101.9903 
  52   0.0000       3.777818       102.7997 
  53   0.0000       3.800219       103.4092 
  54   0.0000       3.967976       107.9741 
  55   0.0000       3.993179       108.6599 
  56   0.0000       4.096090       111.4603 
  57   0.0000       4.179836       113.7391 
  58   0.0000       4.210021       114.5605 
  59   0.0000       4.216366       114.7332 
  60   0.0000       4.671929       127.1297 
  61   0.0000       5.041419       137.1840 
  62   0.0000       5.365006       145.9892 
  63   0.0000       5.505921       149.8237 
  64   0.0000       5.615494       152.8054 
  65   0.0000       6.078992       165.4178 
  66   0.0000       6.199291       168.6913 
  67   0.0000       7.838178       213.2877 
  68   0.0000      29.132342       792.7313 
  69   0.0000      37.142989      1010.7121 
  70   0.0000      37.212360      1012.5998 
  71   0.0000      37.246185      1013.5202 
  72   0.0000     133.578450      3634.8544 

                    ********************************
                    * MULLIKEN POPULATION ANALYSIS *
                    ********************************

--------------------------------------------
MULLIKEN ATOMIC CHARGES AND SPIN POPULATIONS
--------------------------------------------
   0 C :   -0.429608    1.101563
   1 H :    0.149757   -0.032840
   2 H :    0.144054   -0.032126
   3 H :    0.135797   -0.036597
Sum of atomic charges         :   -0.0000000
Sum of atomic spin populations:    1.0000000

-----------------------------------------------------
MULLIKEN REDUCED ORBITAL CHARGES AND SPIN POPULATIONS
-----------------------------------------------------
CHARGE
  0 C s       :     3.322313  s :     3.322313
      pz      :     0.968365  p :     3.080101
      px      :     1.059439
      py      :     1.052298
      dz2     :     0.005654  d :     0.024042
      dxz     :     0.000102
      dyz     :     0.000304
      dx2y2   :     0.008529
      dxy     :     0.009454
      f0      :     0.000059  f :     0.003152
      f+1     :     0.000655
      f-1     :     0.000744
      f+2     :     0.000028
      f-2     :     0.000048
      f+3     :     0.001158
      f-3     :     0.000461
  1 H s       :     0.822568  s :     0.822568
      pz      :     0.011149  p :     0.027675
      px      :     0.007022
      py      :     0.009504
  2 H s       :     0.827030  s :     0.827030
      pz      :     0.011343  p :     0.028916
      px      :     0.008364
      py      :     0.009209
  3 H s       :     0.838341  s :     0.838341
      pz      :     0.010046  p :     0.025862
      px      :     0.009356
      py      :     0.006460

SPIN
  0 C s       :     0.067297  s :     0.067297
      pz      :     0.957235  p :     1.038634
      px      :     0.037680
      py      :     0.043720
      dz2     :    -0.004589  d :    -0.003013
      dxz     :    -0.000006
      dyz     :    -0.000122
      dx2y2   :     0.000791
      dxy     :     0.000914
      f0      :    -0.000033  f :    -0.001356
      f+1     :    -0.000599
      f-1     :    -0.000636
      f+2     :    -0.000015
      f-2     :    -0.000018
      f+3     :    -0.000040
      f-3     :    -0.000013
  1 H s       :    -0.043839  s :    -0.043839
      pz      :     0.011060  p :     0.010999
      px      :    -0.000118
      py      :     0.000057
  2 H s       :    -0.042772  s :    -0.042772
      pz      :     0.011230  p :     0.010647
      px      :    -0.000539
      py      :    -0.000044
  3 H s       :    -0.046111  s :    -0.046111
      pz      :     0.009974  p :     0.009515
      px      :    -0.000226
      py      :    -0.000233


                     *******************************
                     * LOEWDIN POPULATION ANALYSIS *
                     *******************************

-------------------------------------------
LOEWDIN ATOMIC CHARGES AND SPIN POPULATIONS
-------------------------------------------
   0 C :   -0.137217    0.901339
   1 H :    0.050557    0.031534
   2 H :    0.024738    0.039713
   3 H :    0.061921    0.027414

----------------------------------------------------
LOEWDIN REDUCED ORBITAL CHARGES AND SPIN POPULATIONS
----------------------------------------------------
CHARGE
  0 C s       :     2.870151  s :     2.870151
      pz      :     0.870309  p :     3.167842
      px      :     1.150192
      py      :     1.147340
      dz2     :     0.007270  d :     0.091365
      dxz     :     0.000423
      dyz     :     0.000732
      dx2y2   :     0.041025
      dxy     :     0.041915
      f0      :     0.000325  f :     0.007859
      f+1     :     0.001752
      f-1     :     0.002058
      f+2     :     0.000062
      f-2     :     0.000110
      f+3     :     0.002427
      f-3     :     0.001125
  1 H s       :     0.803444  s :     0.803444
      pz      :     0.043395  p :     0.145998
      px      :     0.036623
      py      :     0.065980
  2 H s       :     0.810995  s :     0.810995
      pz      :     0.049492  p :     0.164267
      px      :     0.053417
      py      :     0.061359
  3 H s       :     0.799041  s :     0.799041
      pz      :     0.040018  p :     0.139038
      px      :     0.066652
      py      :     0.032368

SPIN
  0 C s       :     0.018512  s :     0.018512
      pz      :     0.857879  p :     0.891599
      px      :     0.014548
      py      :     0.019171
      dz2     :    -0.004049  d :    -0.007465
      dxz     :    -0.000024
      dyz     :    -0.000140
      dx2y2   :    -0.001626
      dxy     :    -0.001627
      f0      :     0.000154  f :    -0.001307
      f+1     :    -0.000543
      f-1     :    -0.000564
      f+2     :    -0.000015
      f-2     :    -0.000021
      f+3     :    -0.000220
      f-3     :    -0.000097
  1 H s       :    -0.017094  s :    -0.017094
      pz      :     0.042855  p :     0.048627
      px      :     0.001133
      py      :     0.004640
  2 H s       :    -0.014584  s :    -0.014584
      pz      :     0.048733  p :     0.054297
      px      :     0.001754
      py      :     0.003810
  3 H s       :    -0.017391  s :    -0.017391
      pz      :     0.039684  p :     0.044805
      px      :     0.003947
      py      :     0.001174


                      *****************************
                      * MAYER POPULATION ANALYSIS *
                      *****************************

  NA   - Mulliken gross atomic population
  ZA   - Total nuclear charge
  QA   - Mulliken gross atomic charge
  VA   - Mayer's total valence
  BVA  - Mayer's bonded valence
  FA   - Mayer's free valence

  ATOM       NA         ZA         QA         VA         BVA        FA
  0 C      6.4296     6.0000    -0.4296     3.8821     2.9384     0.9437
  1 H      0.8502     1.0000     0.1498     0.9880     0.9861     0.0020
  2 H      0.8559     1.0000     0.1441     0.9815     0.9797     0.0018
  3 H      0.8642     1.0000     0.1358     0.9834     0.9813     0.0021

  Mayer bond orders larger than 0.100000
B(  0-C ,  1-H ) :   0.9781 B(  0-C ,  2-H ) :   0.9797 B(  0-C ,  3-H ) :   0.9806 


-------
TIMINGS
-------

Total SCF time: 0 days 0 hours 0 min 4 sec 

Total time                  ....       4.988 sec
Sum of individual times     ....       4.415 sec  ( 88.5%)

Fock matrix formation       ....       3.708 sec  ( 74.3%)
  Split-RI-J                ....       0.400 sec  ( 10.8% of F)
  Chain of spheres X        ....       0.936 sec  ( 25.2% of F)
  XC integration            ....       1.602 sec  ( 43.2% of F)
    Basis function eval.    ....       0.111 sec  (  6.9% of XC)
    Density eval.           ....       0.104 sec  (  6.5% of XC)
    XC-Functional eval.     ....       0.095 sec  (  5.9% of XC)
    XC-Potential eval.      ....       0.158 sec  (  9.8% of XC)
Diagonalization             ....       0.054 sec  (  1.1%)
Density matrix formation    ....       0.003 sec  (  0.1%)
Population analysis         ....       0.061 sec  (  1.2%)
Initial guess               ....       0.041 sec  (  0.8%)
Orbital Transformation      ....       0.000 sec  (  0.0%)
Orbital Orthonormalization  ....       0.000 sec  (  0.0%)
DIIS solution               ....       0.083 sec  (  1.7%)
Grid generation             ....       0.466 sec  (  9.4%)

Maximum memory used throughout the entire SCF-calculation: 59.0 MB

-------------------------   --------------------
FINAL SINGLE POINT ENERGY       -39.824471875425
-------------------------   --------------------

   --->>> g-tensor requested, so NeedSOC=true

                            ***************************************
                            *     ORCA property calculations      *
                            ***************************************

                                    ---------------------
                                    Active property flags
                                    ---------------------
   (+) Dipole Moment
   (+) g-tensor
   (+) Nuclear properties (Hyperfine,Quadrupole)
   (+) Spin-Orbit Integrals are needed


------------------------------------------------------------------------------
                       ORCA ELECTRIC PROPERTIES CALCULATION
------------------------------------------------------------------------------

Dipole Moment Calculation                       ... on
Quadrupole Moment Calculation                   ... off
Polarizability Calculation                      ... off
GBWName                                         ... /home/rwth0701/scratch/cs681498/orcajob__30556529-NGU9/16766.gbw
Electron density                                ... /home/rwth0701/scratch/cs681498/orcajob__30556529-NGU9/16766.scfp
The origin for moment calculation is the CENTER OF MASS  = (-146.225687, -194.973836 -56.196400)

-------------
DIPOLE MOMENT
-------------
                                X             Y             Z
Electronic contribution:      0.08835      -0.07225      -0.00573
Nuclear contribution   :     -0.08440       0.08768       0.00874
                        -----------------------------------------
Total Dipole Moment    :      0.00394       0.01543       0.00301
                        -----------------------------------------
Magnitude (a.u.)       :      0.01621
Magnitude (Debye)      :      0.04121



--------------------
Rotational spectrum 
--------------------
 
Rotational constants in cm-1:    11.078345     8.773577     4.896102 
Rotational constants in MHz : 332120.414423 263025.227736 146781.454780 

 Dipole components along the rotational axes: 
x,y,z [a.u.] :    -0.011692     0.011148     0.001349 
x,y,z [Debye]:    -0.029720     0.028335     0.003429 

 


           ************************************************************
           *        Program running with 4 parallel MPI-processes     *
           *              working on a common directory               *
           ************************************************************
------------------------------------------------------------------------------
                         ORCA SPIN-ORBIT COUPLING CALCULATION
------------------------------------------------------------------------------

GBW file                                    ... /home/rwth0701/scratch/cs681498/orcajob__30556529-NGU9/16766.gbw
Input density                               ... /home/rwth0701/scratch/cs681498/orcajob__30556529-NGU9/16766.scfp
Output integrals                            ... /home/rwth0701/scratch/cs681498/orcajob__30556529-NGU9/16766
Operator type                               ... Mean-field/Effective potential
   One-Electron Terms                       ... 1
   Coulomb Contribution                     ... 3
   Exchange Contribution                    ... 3
   Correlation Contribution                 ... 0
   Maximum number of centers                ... 4
SHARK 2-electron RIJ-SOMF                   ... done (  0.2 sec)
SHARK 1-electron  MaxCenter=4               ... done (  0.0 sec)
SHARK 2-electron DoJ,X=0,1 MaxCenter=1      ... done (  0.2 sec)

Maximum memory used throughout the entire SOC-calculation: 11.3 MB
Total time for SOC:  2.238


           ************************************************************
           *        Program running with 4 parallel MPI-processes     *
           *              working on a common directory               *
           ************************************************************
------------------------------------------------------------------------------
                                ORCA EPR/NMR CALCULATION
------------------------------------------------------------------------------

GBWName                      ... /home/rwth0701/scratch/cs681498/orcajob__30556529-NGU9/16766.gbw
Electron density             ... /home/rwth0701/scratch/cs681498/orcajob__30556529-NGU9/16766.scfp
Spin density                 ... /home/rwth0701/scratch/cs681498/orcajob__30556529-NGU9/16766.scfr
Spin-orbit integrals         ... /home/rwth0701/scratch/cs681498/orcajob__30556529-NGU9/16766
Treatment of gauge           ... GIAO (approximations 1/2el = 0,0)
Details of the CP(SCF) procedure:
       Solver   = POPLE   
       MaxIter  =    64   
       Tolerance=    1.000e-03
       COSX Grid=     1   
       Op-0     =   0-  4 =>   5- 72
       Op-1     =   0-  3 =>   4- 72
Multiplicity                 ... 2
g-tensor                     ... 1
NMR chemical shifts          ... 0
NMR spin-spin couplings      ... 0
NMR spectrum                 ... 0
Number of nuclei for epr/nmr ... 4
   Nucleus:   1H 
       Hyperfine : Isotope=    1 I=   0.500 P= 533.551
       Quadrupole: Isotope=    2 I=   1.000 Q=   0.003
       Spin-Orbit: Zeff=   1.000
       Nuclear Spin-Spin: Gn=   0.000
       EPRNMR Input: 
       rho(0)=N f(grad)=N a(iso)=Y a(dip)=Y a(orb)=Y sigma(nmr)=N spin-spin(nmr)=all-N,DSO-N,PSO-N,FC-N,SD-N
   Nucleus:   2H 
       Hyperfine : Isotope=    1 I=   0.500 P= 533.551
       Quadrupole: Isotope=    2 I=   1.000 Q=   0.003
       Spin-Orbit: Zeff=   1.000
       Nuclear Spin-Spin: Gn=   0.000
       EPRNMR Input: 
       rho(0)=N f(grad)=N a(iso)=Y a(dip)=Y a(orb)=Y sigma(nmr)=N spin-spin(nmr)=all-N,DSO-N,PSO-N,FC-N,SD-N
   Nucleus:   3H 
       Hyperfine : Isotope=    1 I=   0.500 P= 533.551
       Quadrupole: Isotope=    2 I=   1.000 Q=   0.003
       Spin-Orbit: Zeff=   1.000
       Nuclear Spin-Spin: Gn=   0.000
       EPRNMR Input: 
       rho(0)=N f(grad)=N a(iso)=Y a(dip)=Y a(orb)=Y sigma(nmr)=N spin-spin(nmr)=all-N,DSO-N,PSO-N,FC-N,SD-N
   Nucleus:   0C 
       Hyperfine : Isotope=   13 I=   0.500 P= 134.190
       Quadrupole: Isotope=   13 I=   0.500 Q=   0.000
       Spin-Orbit: Zeff=   3.600
       Nuclear Spin-Spin: Gn=   0.000
       EPRNMR Input: 
       rho(0)=N f(grad)=N a(iso)=Y a(dip)=Y a(orb)=Y sigma(nmr)=N spin-spin(nmr)=all-N,DSO-N,PSO-N,FC-N,SD-N
Forming RHS of the CP-SCF equations         ... 
Calculating right hand sides for GIAO treatment        ... 
  Entering RightHandSide GIAO. ScalHFX=    0.2000 NeedHFX=1
     -> 1-electron GIAO integrals will be done analytically
     -> RIJCOSX used in SCF. Same chosen for GIAO calculation.
     Making grid for GIAO integrations   ...

GRID GIAO
---------

General Integration Accuracy     IntAcc      ... 4.388
Radial Grid Type                 RadialGrid  ... OptM3 with GC (2021)
Angular Grid (max. ang.)         AngularGrid ... 4 (Lebedev-302)
Angular grid pruning method      GridPruning ... 4 (adaptive)
Weight generation scheme         WeightScheme... Becke
Basis function cutoff            BFCut       ... 1.0000e-10
Integration weight cutoff        WCut        ... 1.0000e-14
Angular grids for H and He will be reduced by one unit
Partially contracted basis set               ... off
Rotationally invariant grid construction     ... off

Total number of grid points                  ...    17040
Total number of batches                      ...      268
Average number of points per batch           ...       63
Average number of grid points per atom       ...     4260

  One-electron GIAO integrals (SHARK)     ... done
  Calculating G(B)[P]                     ... (RI-J: SHARK-ok) (COSX-ok) (add-J+K:ok) => dG/dB done
  DFT XC-terms                            ... done
  Extracting occupied and virtual blocks  ... 
  Operator  0  NO=   5 NV=  68 
  Operator  1  NO=   4 NV=  69 
  Transforming and RHS contribution       ... done
  Adding eps_i * S(B)_ai terms            ... done
  Projecting overlap derivatives          ... done
  Building G[dS/dB_ij] (COSX)             ... done
  Transforming to MO basis                ... done
  Summing G[dS/dB_ij] into RHS contribs.  ... done

  GIAO profiling information: 
    Total GIAO time               ...       0.9 sec
       GIAO 1-electron integrals  ...       0.0 sec (  0.8%)
       GIAO G(dS/dB) terms        ...       0.1 sec ( 14.5%)
       GIAO RI-J                  ...       0.1 sec ( 13.0%)
       GIAO COSX                  ...       0.2 sec ( 18.0%)
       GIAO XC-terms              ...       0.3 sec ( 36.2%)

  GIAO right hand side done


------------------------------------------------------------------------------
                           ORCA CP-SCF CALCULATION
------------------------------------------------------------------------------

Input orbitals are from        ... /home/rwth0701/scratch/cs681498/orcajob__30556529-NGU9/16766.gbw
Input Perturbation             ... /home/rwth0701/scratch/cs681498/orcajob__30556529-NGU9/16766.pin.tmp
Wavefunction output            ... /home/rwth0701/scratch/cs681498/orcajob__30556529-NGU9/16766.pout.tmp
Perturbation mode              ... Imaginary perturbation
Solver                         ... POPLE
Max. number of iterations      ... 64
Convergence tolerance          ... 1.000e-03
Integral handling              ... Direct
DFT GridXC                     ... 1
COSX GridX                     ... 1
COSX IntAccX                   ... 3.067
COSX Algorithm                 ... Auto
Number of perturbations        ... 3
Number of operators            ... 2
Orbital ranges used for CP-SCF:
 Operator 0:  Orbitals   0...  4  to   5... 72
 Operator 1:  Orbitals   0...  3  to   4... 72
Variables per perturbation     ... 616
DFT calculation                         ... on
XC functional terms                     ... off
Hybrid DFT                              ... on
   Exchange mixing (SCF)                ...  0.200
   Exchange mixing (CP-SCF)             ...  0.200
   GGA exch. scaling(SCF)               ...  0.720
   GGA exch. scaling (CP-SCF)           ...  0.720
   GGA corr. scaling (SCF)              ...  0.810
   GGA corr. scaling (CP-SCF)           ...  0.810

CP-SCF GRID
-----------

General Integration Accuracy     IntAcc      ... 3.467
Radial Grid Type                 RadialGrid  ... OptM3 with GC (2021)
Angular Grid (max. ang.)         AngularGrid ... 1 (Lebedev-50)
Angular grid pruning method      GridPruning ... 4 (adaptive)
Weight generation scheme         WeightScheme... Becke
Basis function cutoff            BFCut       ... 1.0000e-10
Integration weight cutoff        WCut        ... 1.0000e-14
Angular grids for H and He will be reduced by one unit
Partially contracted basis set               ... off
Rotationally invariant grid construction     ... off

Total number of grid points                  ...     2343
Total number of batches                      ...       38
Average number of points per batch           ...       61
Average number of grid points per atom       ...      586

CP-SCF GRIDX
------------

General Integration Accuracy     IntAcc      ... 3.067
Radial Grid Type                 RadialGrid  ... OptM3 with GC (2021)
Angular Grid (max. ang.)         AngularGrid ... 1 (Lebedev-50)
Angular grid pruning method      GridPruning ... 4 (adaptive)
Weight generation scheme         WeightScheme... Becke
Basis function cutoff            BFCut       ... 1.0000e-10
Integration weight cutoff        WCut        ... 1.0000e-14
Angular grids for H and He will be reduced by one unit
Partially contracted basis set               ... on
Rotationally invariant grid construction     ... off

Total number of grid points                  ...     1073
Total number of batches                      ...       20
Average number of points per batch           ...       53
Average number of grid points per atom       ...      268

Memory available               ... 1014.6 MB
Memory needed per perturbation ...   0.4 MB
Perturbations treated per batch... 3
Number of batches              ... 1
     CP-SCF ITERATION   0:   1.1039e+01 (   0.1 sec   0/  3 done)
     CP-SCF ITERATION   1:   8.2963e-02 (   0.1 sec   0/  3 done)
     CP-SCF ITERATION   2:   3.9587e-03 (   0.1 sec   0/  3 done)
     CP-SCF ITERATION   3:   1.5315e-04 (   0.1 sec   3/  3 done)
                    *** THE CP-SCF HAS CONVERGED ***

Forming final perturbed densities           ... done
Transforming perturbed density to AO basis  ... done

Magnetic field perturbation calculated in  1.352 sec
GIAO: Diamagnetic terms      (analytic)     (SHARK) ... done
GIAO: 1el-Paramagnetic terms (analytic)     (SHARK) ... done

-------------------
ELECTRONIC G-MATRIX
-------------------

 The g-matrix: 
              2.0028982   -0.0000225    0.0000247
             -0.0000293    2.0029188    0.0000676
              0.0000266    0.0000706    2.0022311

 gel          2.0023193    2.0023193    2.0023193
 gRMC        -0.0001264   -0.0001264   -0.0001264
 gDSO(tot)    0.0000343    0.0000710    0.0000712
 gPSO(tot)   -0.0000041    0.0006220    0.0006751
             ----------   ----------   ----------
 g(tot)       2.0022231    2.0028858    2.0029392 iso=  2.0026827
 Delta-g     -0.0000962    0.0005666    0.0006199 iso=  0.0003634
 Orientation: 
  X          -0.0415740    0.8628648   -0.5037220
  Y          -0.1002674    0.4980097    0.8613552
  Z           0.9940916    0.0863169    0.0658129

Notes:  (1) The g-matrix conforms to the "BgS" spin Hamiltonian convention. 
        (2) The principal values are square roots of the eigenvalues of g*gT.
        (3) Orientations are eigenvectors of g*gT written as column vectors.
        (4) Individual contributions are projections of the full matrices onto the eigenvectors of g*gT.
        (5) Tensor is right-handed.


-----------------------------------------
ELECTRIC AND MAGNETIC HYPERFINE STRUCTURE
-----------------------------------------

 -----------------------------------------------------------
 Nucleus   1H : A:ISTP=    1 I=  0.5 P=533.5514 MHz/au**3
                Q:ISTP=    2 I=  1.0 Q=  0.0029 barn     
 -----------------------------------------------------------
 Solving for nuclear perturbation:
Forming RHS of the CP-SCF equations         ... 
Calc. nucleus orbit integrals (SHARK)       ... done

------------------------------------------------------------------------------
                           ORCA CP-SCF CALCULATION
------------------------------------------------------------------------------

Input orbitals are from        ... /home/rwth0701/scratch/cs681498/orcajob__30556529-NGU9/16766.gbw
Input Perturbation             ... /home/rwth0701/scratch/cs681498/orcajob__30556529-NGU9/16766.pin.tmp
Wavefunction output            ... /home/rwth0701/scratch/cs681498/orcajob__30556529-NGU9/16766.pout.tmp
Perturbation mode              ... Imaginary perturbation
Solver                         ... POPLE
Max. number of iterations      ... 64
Convergence tolerance          ... 1.000e-03
Integral handling              ... Direct
DFT GridXC                     ... 1
COSX GridX                     ... 1
COSX IntAccX                   ... 3.067
COSX Algorithm                 ... Auto
Number of perturbations        ... 3
Number of operators            ... 2
Orbital ranges used for CP-SCF:
 Operator 0:  Orbitals   0...  4  to   5... 72
 Operator 1:  Orbitals   0...  3  to   4... 72
Variables per perturbation     ... 616
DFT calculation                         ... on
XC functional terms                     ... off
Hybrid DFT                              ... on
   Exchange mixing (SCF)                ...  0.200
   Exchange mixing (CP-SCF)             ...  0.200
   GGA exch. scaling(SCF)               ...  0.720
   GGA exch. scaling (CP-SCF)           ...  0.720
   GGA corr. scaling (SCF)              ...  0.810
   GGA corr. scaling (CP-SCF)           ...  0.810

CP-SCF GRID
-----------

General Integration Accuracy     IntAcc      ... 3.467
Radial Grid Type                 RadialGrid  ... OptM3 with GC (2021)
Angular Grid (max. ang.)         AngularGrid ... 1 (Lebedev-50)
Angular grid pruning method      GridPruning ... 4 (adaptive)
Weight generation scheme         WeightScheme... Becke
Basis function cutoff            BFCut       ... 1.0000e-10
Integration weight cutoff        WCut        ... 1.0000e-14
Angular grids for H and He will be reduced by one unit
Partially contracted basis set               ... off
Rotationally invariant grid construction     ... off

Total number of grid points                  ...     2343
Total number of batches                      ...       38
Average number of points per batch           ...       61
Average number of grid points per atom       ...      586

CP-SCF GRIDX
------------

General Integration Accuracy     IntAcc      ... 3.067
Radial Grid Type                 RadialGrid  ... OptM3 with GC (2021)
Angular Grid (max. ang.)         AngularGrid ... 1 (Lebedev-50)
Angular grid pruning method      GridPruning ... 4 (adaptive)
Weight generation scheme         WeightScheme... Becke
Basis function cutoff            BFCut       ... 1.0000e-10
Integration weight cutoff        WCut        ... 1.0000e-14
Angular grids for H and He will be reduced by one unit
Partially contracted basis set               ... on
Rotationally invariant grid construction     ... off

Total number of grid points                  ...     1073
Total number of batches                      ...       20
Average number of points per batch           ...       53
Average number of grid points per atom       ...      268

Memory available               ... 968.0 MB
Memory needed per perturbation ...   0.4 MB
Perturbations treated per batch... 3
Number of batches              ... 1
     CP-SCF ITERATION   0:   7.0026e-02 (   0.1 sec   0/  3 done)
     CP-SCF ITERATION   1:   2.7415e-03 (   0.1 sec   1/  3 done)
     CP-SCF ITERATION   2:   2.1778e-04 (   0.1 sec   3/  3 done)
                    *** THE CP-SCF HAS CONVERGED ***

Forming final perturbed densities           ... done
Transforming perturbed density to AO basis  ... done

 Raw HFC matrix (all values in MHz): 
 -----------------------------------
               -98.8342             -24.3225              -3.6352
               -24.3213             -37.2465               1.7580
                -3.6351               1.7580             -65.6732

 A(FC)         -67.2659             -67.2659             -67.2659
 A(SD)          38.6720               1.5691             -40.2411
 A(ORB+DIA)      0.0142              -0.0007               0.0304    A(PC) =   0.0146
 A(ORB)          0.0091               0.0005               0.0290    A(PC) =   0.0129
 A(DIA)          0.0050              -0.0012               0.0014    A(PC) =   0.0018
             ----------           ----------           ----------
 A(Tot)        -28.5798             -65.6975            -107.4766    A(iso)=  -67.2513
 Orientation: 
  X          -0.3297349           -0.0393291            0.9432540
  Y           0.9409357           -0.0950843            0.3249600
  Z           0.0769082            0.9946920            0.0683588

Notes:  (1) The A matrix conforms to the "SAI" spin Hamiltonian convention.
        (2) Tensor is right-handed.

 -----------------------------------------------------------
 Nucleus   2H : A:ISTP=    1 I=  0.5 P=533.5514 MHz/au**3
                Q:ISTP=    2 I=  1.0 Q=  0.0029 barn     
 -----------------------------------------------------------
 Solving for nuclear perturbation:
Forming RHS of the CP-SCF equations         ... 
Calc. nucleus orbit integrals (SHARK)       ... done

------------------------------------------------------------------------------
                           ORCA CP-SCF CALCULATION
------------------------------------------------------------------------------

Input orbitals are from        ... /home/rwth0701/scratch/cs681498/orcajob__30556529-NGU9/16766.gbw
Input Perturbation             ... /home/rwth0701/scratch/cs681498/orcajob__30556529-NGU9/16766.pin.tmp
Wavefunction output            ... /home/rwth0701/scratch/cs681498/orcajob__30556529-NGU9/16766.pout.tmp
Perturbation mode              ... Imaginary perturbation
Solver                         ... POPLE
Max. number of iterations      ... 64
Convergence tolerance          ... 1.000e-03
Integral handling              ... Direct
DFT GridXC                     ... 1
COSX GridX                     ... 1
COSX IntAccX                   ... 3.067
COSX Algorithm                 ... Auto
Number of perturbations        ... 3
Number of operators            ... 2
Orbital ranges used for CP-SCF:
 Operator 0:  Orbitals   0...  4  to   5... 72
 Operator 1:  Orbitals   0...  3  to   4... 72
Variables per perturbation     ... 616
DFT calculation                         ... on
XC functional terms                     ... off
Hybrid DFT                              ... on
   Exchange mixing (SCF)                ...  0.200
   Exchange mixing (CP-SCF)             ...  0.200
   GGA exch. scaling(SCF)               ...  0.720
   GGA exch. scaling (CP-SCF)           ...  0.720
   GGA corr. scaling (SCF)              ...  0.810
   GGA corr. scaling (CP-SCF)           ...  0.810

CP-SCF GRID
-----------

General Integration Accuracy     IntAcc      ... 3.467
Radial Grid Type                 RadialGrid  ... OptM3 with GC (2021)
Angular Grid (max. ang.)         AngularGrid ... 1 (Lebedev-50)
Angular grid pruning method      GridPruning ... 4 (adaptive)
Weight generation scheme         WeightScheme... Becke
Basis function cutoff            BFCut       ... 1.0000e-10
Integration weight cutoff        WCut        ... 1.0000e-14
Angular grids for H and He will be reduced by one unit
Partially contracted basis set               ... off
Rotationally invariant grid construction     ... off

Total number of grid points                  ...     2343
Total number of batches                      ...       38
Average number of points per batch           ...       61
Average number of grid points per atom       ...      586

CP-SCF GRIDX
------------

General Integration Accuracy     IntAcc      ... 3.067
Radial Grid Type                 RadialGrid  ... OptM3 with GC (2021)
Angular Grid (max. ang.)         AngularGrid ... 1 (Lebedev-50)
Angular grid pruning method      GridPruning ... 4 (adaptive)
Weight generation scheme         WeightScheme... Becke
Basis function cutoff            BFCut       ... 1.0000e-10
Integration weight cutoff        WCut        ... 1.0000e-14
Angular grids for H and He will be reduced by one unit
Partially contracted basis set               ... on
Rotationally invariant grid construction     ... off

Total number of grid points                  ...     1073
Total number of batches                      ...       20
Average number of points per batch           ...       53
Average number of grid points per atom       ...      268

Memory available               ... 967.8 MB
Memory needed per perturbation ...   0.4 MB
Perturbations treated per batch... 3
Number of batches              ... 1
     CP-SCF ITERATION   0:   6.8778e-02 (   0.1 sec   0/  3 done)
     CP-SCF ITERATION   1:   2.7206e-03 (   0.1 sec   0/  3 done)
     CP-SCF ITERATION   2:   2.4955e-04 (   0.1 sec   3/  3 done)
                    *** THE CP-SCF HAS CONVERGED ***

Forming final perturbed densities           ... done
Transforming perturbed density to AO basis  ... done

 Raw HFC matrix (all values in MHz): 
 -----------------------------------
               -78.3016              39.4692               3.0844
                39.4698             -50.7617               2.3140
                 3.0845               2.3140             -57.8201

 A(FC)         -62.3101             -62.3101             -62.3101
 A(SD)          39.9477               4.1388             -44.0865
 A(ORB+DIA)      0.0137              -0.0007               0.0339    A(PC) =   0.0157
 A(ORB)          0.0081               0.0006               0.0322    A(PC) =   0.0136
 A(DIA)          0.0056              -0.0012               0.0017    A(PC) =   0.0020
             ----------           ----------           ----------
 A(Tot)        -22.3486             -58.1720            -106.3628    A(iso)=  -62.2945
 Orientation: 
  X           0.5771411           -0.0398887            0.8156697
  Y           0.8101185           -0.0980525           -0.5780084
  Z           0.1030344            0.9943815           -0.0242755

Notes:  (1) The A matrix conforms to the "SAI" spin Hamiltonian convention.
        (2) Tensor is right-handed.

 -----------------------------------------------------------
 Nucleus   3H : A:ISTP=    1 I=  0.5 P=533.5514 MHz/au**3
                Q:ISTP=    2 I=  1.0 Q=  0.0029 barn     
 -----------------------------------------------------------
 Solving for nuclear perturbation:
Forming RHS of the CP-SCF equations         ... 
Calc. nucleus orbit integrals (SHARK)       ... done

------------------------------------------------------------------------------
                           ORCA CP-SCF CALCULATION
------------------------------------------------------------------------------

Input orbitals are from        ... /home/rwth0701/scratch/cs681498/orcajob__30556529-NGU9/16766.gbw
Input Perturbation             ... /home/rwth0701/scratch/cs681498/orcajob__30556529-NGU9/16766.pin.tmp
Wavefunction output            ... /home/rwth0701/scratch/cs681498/orcajob__30556529-NGU9/16766.pout.tmp
Perturbation mode              ... Imaginary perturbation
Solver                         ... POPLE
Max. number of iterations      ... 64
Convergence tolerance          ... 1.000e-03
Integral handling              ... Direct
DFT GridXC                     ... 1
COSX GridX                     ... 1
COSX IntAccX                   ... 3.067
COSX Algorithm                 ... Auto
Number of perturbations        ... 3
Number of operators            ... 2
Orbital ranges used for CP-SCF:
 Operator 0:  Orbitals   0...  4  to   5... 72
 Operator 1:  Orbitals   0...  3  to   4... 72
Variables per perturbation     ... 616
DFT calculation                         ... on
XC functional terms                     ... off
Hybrid DFT                              ... on
   Exchange mixing (SCF)                ...  0.200
   Exchange mixing (CP-SCF)             ...  0.200
   GGA exch. scaling(SCF)               ...  0.720
   GGA exch. scaling (CP-SCF)           ...  0.720
   GGA corr. scaling (SCF)              ...  0.810
   GGA corr. scaling (CP-SCF)           ...  0.810

CP-SCF GRID
-----------

General Integration Accuracy     IntAcc      ... 3.467
Radial Grid Type                 RadialGrid  ... OptM3 with GC (2021)
Angular Grid (max. ang.)         AngularGrid ... 1 (Lebedev-50)
Angular grid pruning method      GridPruning ... 4 (adaptive)
Weight generation scheme         WeightScheme... Becke
Basis function cutoff            BFCut       ... 1.0000e-10
Integration weight cutoff        WCut        ... 1.0000e-14
Angular grids for H and He will be reduced by one unit
Partially contracted basis set               ... off
Rotationally invariant grid construction     ... off

Total number of grid points                  ...     2343
Total number of batches                      ...       38
Average number of points per batch           ...       61
Average number of grid points per atom       ...      586

CP-SCF GRIDX
------------

General Integration Accuracy     IntAcc      ... 3.067
Radial Grid Type                 RadialGrid  ... OptM3 with GC (2021)
Angular Grid (max. ang.)         AngularGrid ... 1 (Lebedev-50)
Angular grid pruning method      GridPruning ... 4 (adaptive)
Weight generation scheme         WeightScheme... Becke
Basis function cutoff            BFCut       ... 1.0000e-10
Integration weight cutoff        WCut        ... 1.0000e-14
Angular grids for H and He will be reduced by one unit
Partially contracted basis set               ... on
Rotationally invariant grid construction     ... off

Total number of grid points                  ...     1073
Total number of batches                      ...       20
Average number of points per batch           ...       53
Average number of grid points per atom       ...      268

Memory available               ... 967.7 MB
Memory needed per perturbation ...   0.4 MB
Perturbations treated per batch... 3
Number of batches              ... 1
     CP-SCF ITERATION   0:   6.1232e-02 (   0.1 sec   0/  3 done)
     CP-SCF ITERATION   1:   2.2294e-03 (   0.1 sec   1/  3 done)
     CP-SCF ITERATION   2:   1.6611e-04 (   0.1 sec   3/  3 done)
                    *** THE CP-SCF HAS CONVERGED ***

Forming final perturbed densities           ... done
Transforming perturbed density to AO basis  ... done

 Raw HFC matrix (all values in MHz): 
 -----------------------------------
               -32.0335             -19.4806              -0.7030
               -19.4812             -96.9344              -3.9281
                -0.7030              -3.9281             -64.5342

 A(FC)         -64.5158             -64.5158             -64.5158
 A(SD)          37.8689               0.3918             -38.2607
 A(ORB+DIA)      0.0155              -0.0008               0.0305    A(PC) =   0.0151
 A(ORB)          0.0108               0.0004               0.0292    A(PC) =   0.0134
 A(DIA)          0.0047              -0.0011               0.0014    A(PC) =   0.0016
             ----------           ----------           ----------
 A(Tot)        -26.6314             -64.1247            -102.7460    A(iso)=  -64.5007
 Orientation: 
  X           0.9634985            0.0371187            0.2651282
  Y          -0.2675324            0.0970381            0.9586501
  Z           0.0098563           -0.9945883            0.1034265

Notes:  (1) The A matrix conforms to the "SAI" spin Hamiltonian convention.
        (2) Tensor is right-handed.

 -----------------------------------------------------------
 Nucleus   0C : A:ISTP=   13 I=  0.5 P=134.1903 MHz/au**3
                Q:ISTP=   13 I=  0.5 Q=  0.0000 barn     
 -----------------------------------------------------------
 Solving for nuclear perturbation:
Forming RHS of the CP-SCF equations         ... 
Calc. nucleus orbit integrals (SHARK)       ... done

------------------------------------------------------------------------------
                           ORCA CP-SCF CALCULATION
------------------------------------------------------------------------------

Input orbitals are from        ... /home/rwth0701/scratch/cs681498/orcajob__30556529-NGU9/16766.gbw
Input Perturbation             ... /home/rwth0701/scratch/cs681498/orcajob__30556529-NGU9/16766.pin.tmp
Wavefunction output            ... /home/rwth0701/scratch/cs681498/orcajob__30556529-NGU9/16766.pout.tmp
Perturbation mode              ... Imaginary perturbation
Solver                         ... POPLE
Max. number of iterations      ... 64
Convergence tolerance          ... 1.000e-03
Integral handling              ... Direct
DFT GridXC                     ... 1
COSX GridX                     ... 1
COSX IntAccX                   ... 3.067
COSX Algorithm                 ... Auto
Number of perturbations        ... 3
Number of operators            ... 2
Orbital ranges used for CP-SCF:
 Operator 0:  Orbitals   0...  4  to   5... 72
 Operator 1:  Orbitals   0...  3  to   4... 72
Variables per perturbation     ... 616
DFT calculation                         ... on
XC functional terms                     ... off
Hybrid DFT                              ... on
   Exchange mixing (SCF)                ...  0.200
   Exchange mixing (CP-SCF)             ...  0.200
   GGA exch. scaling(SCF)               ...  0.720
   GGA exch. scaling (CP-SCF)           ...  0.720
   GGA corr. scaling (SCF)              ...  0.810
   GGA corr. scaling (CP-SCF)           ...  0.810

CP-SCF GRID
-----------

General Integration Accuracy     IntAcc      ... 3.467
Radial Grid Type                 RadialGrid  ... OptM3 with GC (2021)
Angular Grid (max. ang.)         AngularGrid ... 1 (Lebedev-50)
Angular grid pruning method      GridPruning ... 4 (adaptive)
Weight generation scheme         WeightScheme... Becke
Basis function cutoff            BFCut       ... 1.0000e-10
Integration weight cutoff        WCut        ... 1.0000e-14
Angular grids for H and He will be reduced by one unit
Partially contracted basis set               ... off
Rotationally invariant grid construction     ... off

Total number of grid points                  ...     2343
Total number of batches                      ...       38
Average number of points per batch           ...       61
Average number of grid points per atom       ...      586

CP-SCF GRIDX
------------

General Integration Accuracy     IntAcc      ... 3.067
Radial Grid Type                 RadialGrid  ... OptM3 with GC (2021)
Angular Grid (max. ang.)         AngularGrid ... 1 (Lebedev-50)
Angular grid pruning method      GridPruning ... 4 (adaptive)
Weight generation scheme         WeightScheme... Becke
Basis function cutoff            BFCut       ... 1.0000e-10
Integration weight cutoff        WCut        ... 1.0000e-14
Angular grids for H and He will be reduced by one unit
Partially contracted basis set               ... on
Rotationally invariant grid construction     ... off

Total number of grid points                  ...     1073
Total number of batches                      ...       20
Average number of points per batch           ...       53
Average number of grid points per atom       ...      268

Memory available               ... 967.6 MB
Memory needed per perturbation ...   0.4 MB
Perturbations treated per batch... 3
Number of batches              ... 1
     CP-SCF ITERATION   0:   1.1458e+00 (   0.1 sec   0/  3 done)
     CP-SCF ITERATION   1:   4.3684e-02 (   0.1 sec   0/  3 done)
     CP-SCF ITERATION   2:   3.0734e-03 (   0.1 sec   0/  3 done)
     CP-SCF ITERATION   3:   1.3386e-04 (   0.1 sec   3/  3 done)
                    *** THE CP-SCF HAS CONVERGED ***

Forming final perturbed densities           ... done
Transforming perturbed density to AO basis  ... done

 Raw HFC matrix (all values in MHz): 
 -----------------------------------
                -2.2263               0.8972              -9.2757
                 0.8973              -1.1632             -23.1902
                -9.2757             -23.1902             235.2994

 A(FC)          77.4145              77.4145              77.4145
 A(SD)         -79.8414             -80.6698             160.5112
 A(ORB+DIA)     -0.1610              -0.1607              -0.0118    A(PC) =  -0.1112
 A(ORB)         -0.1614              -0.1612              -0.0117    A(PC) =  -0.1114
 A(DIA)          0.0004               0.0004              -0.0001    A(PC) =   0.0002
             ----------           ----------           ----------
 A(Tot)         -2.5880              -3.4160             237.9139    A(iso)=   77.3033
 Orientation: 
  X           0.9992371            0.0046325           -0.0387772
  Y          -0.0083636            0.9952865           -0.0966172
  Z           0.0381468            0.0968678            0.9945660

Notes:  (1) The A matrix conforms to the "SAI" spin Hamiltonian convention.
        (2) Tensor is right-handed.


--------------------------------------------------------------------------------
----------------------------------------------------------------------------
                           ORCA EULER ANGLE PROGRAM
----------------------------------------------------------------------------

Only g-tensor available        -->  using g-tensor as reference tensor

Reference tensor               ...  g

g-tensor ordering              ...  |g_min> --> |gx>
                                    |g_mid> --> |gy>
                                    |g_max> --> |gz>

A- and EFG-tensor ordering     ...  the axes |Ax>, |Qx>, |Ay>, etc. are assigned
                                    such that the Euler rotation is minimal. You
                                    can find the respective eigenvalues as Ax,
                                    EFGx, Ay, etc. in the tables below.
                                    The relation of |Ax>, |Ay>,  etc. to Amin, Amid, etc.
                                    (as printed in the ORCA EPR/NMR CALCULATION Output)
                                    is obtained in the detailed printout.

Euler rotation around          ...  z - y - z
   First rotation              -->  by alpha around z
   Second rotation             -->  by beta around y'
   Third rotation              -->  by gamma around z''
   Positive / Negative angle   -->  clockwise / counterclockwise rotation

Plot EFG-tensors                    (-)
Plot HFC-tensors                    (-)
Detailed Printout                   (-)

-------------------------------------------------------------------------
          Euler rotation of hyperfine tensor to g-tensor
-------------------------------------------------------------------------

-------------------------------------------------------------------
 Atom  |   Alpha    Beta    Gamma   |   Ax       Ay       Az 
       |          [degrees]         |           [MHz]         
-------------------------------------------------------------------
  1H      -89.0     11.0     88.7     -65.70  -107.48   -28.58
  2H       89.9     24.4    -90.0     -58.17   -22.35  -106.36
  3H       90.0     44.3    -90.3     -64.12  -102.75   -26.63
  0C      -89.8     30.5     89.6     237.91    -2.59    -3.42
-------------------------------------------------------------------


Maximum memory used throughout the entire EPRNMR-calculation: 67.6 MB

Timings for individual modules:

Sum of individual times         ...       18.551 sec (=   0.309 min)
GTO integral calculation        ...        2.788 sec (=   0.046 min)  15.0 %
Spin-Orbit-Coupling Matrices    ...        2.230 sec (=   0.037 min)  12.0 %
SCF iterations                  ...        7.076 sec (=   0.118 min)  38.1 %
EPR/NMR calculation             ...        6.457 sec (=   0.108 min)  34.8 %
                             ****ORCA TERMINATED NORMALLY****
TOTAL RUN TIME: 0 days 0 hours 0 minutes 20 seconds 861 msec
