Job execution start: Mon Oct 24 21:43:11 CEST 2022
Shared library path: /home/cs681498/orca:/opt/MPI/openmpi-4.1.1/linux/gcc_4.8.5/lib:/opt/MPI/openmpi-4.1.1/linux/gcc_4.8.5/lib/lib32
Slurm Job ID is: 30556461
Slurm Job name is: 14232
ncm0787

                                 *****************
                                 * O   R   C   A *
                                 *****************

                                            #,                                       
                                            ###                                      
                                            ####                                     
                                            #####                                    
                                            ######                                   
                                           ########,                                 
                                     ,,################,,,,,                         
                               ,,#################################,,                 
                          ,,##########################################,,             
                       ,#########################################, ''#####,          
                    ,#############################################,,   '####,        
                  ,##################################################,,,,####,       
                ,###########''''           ''''###############################       
              ,#####''   ,,,,##########,,,,          '''####'''          '####       
            ,##' ,,,,###########################,,,                        '##       
           ' ,,###''''                  '''############,,,                           
         ,,##''                                '''############,,,,        ,,,,,,###''
      ,#''                                            '''#######################'''  
     '                                                          ''''####''''         
             ,#######,   #######,   ,#######,      ##                                
            ,#'     '#,  ##    ##  ,#'     '#,    #''#        ######   ,####,        
            ##       ##  ##   ,#'  ##            #'  '#       #        #'  '#        
            ##       ##  #######   ##           ,######,      #####,   #    #        
            '#,     ,#'  ##    ##  '#,     ,#' ,#      #,         ##   #,  ,#        
             '#######'   ##     ##  '#######'  #'      '#     #####' # '####'        



                  #######################################################
                  #                        -***-                        #
                  #          Department of theory and spectroscopy      #
                  #    Directorship and core code : Frank Neese         #
                  #        Max Planck Institute fuer Kohlenforschung    #
                  #                Kaiser Wilhelm Platz 1               #
                  #                 D-45470 Muelheim/Ruhr               #
                  #                      Germany                        #
                  #                                                     #
                  #                  All rights reserved                #
                  #                        -***-                        #
                  #######################################################


                         Program Version 5.0.3 -  RELEASE  -


 With contributions from (in alphabetic order):
   Daniel Aravena         : Magnetic Suceptibility
   Michael Atanasov       : Ab Initio Ligand Field Theory (pilot matlab implementation)
   Alexander A. Auer      : GIAO ZORA, VPT2 properties, NMR spectrum
   Ute Becker             : Parallelization
   Giovanni Bistoni       : ED, misc. LED, open-shell LED, HFLD
   Martin Brehm           : Molecular dynamics
   Dmytro Bykov           : SCF Hessian
   Vijay G. Chilkuri      : MRCI spin determinant printing, contributions to CSF-ICE
   Dipayan Datta          : RHF DLPNO-CCSD density
   Achintya Kumar Dutta   : EOM-CC, STEOM-CC
   Dmitry Ganyushin       : Spin-Orbit,Spin-Spin,Magnetic field MRCI
   Miquel Garcia          : C-PCM and meta-GGA Hessian, CC/C-PCM, Gaussian charge scheme
   Yang Guo               : DLPNO-NEVPT2, F12-NEVPT2, CIM, IAO-localization
   Andreas Hansen         : Spin unrestricted coupled pair/coupled cluster methods
   Benjamin Helmich-Paris : MC-RPA, TRAH-SCF, COSX integrals
   Lee Huntington         : MR-EOM, pCC
   Robert Izsak           : Overlap fitted RIJCOSX, COSX-SCS-MP3, EOM
   Marcus Kettner         : VPT2
   Christian Kollmar      : KDIIS, OOCD, Brueckner-CCSD(T), CCSD density, CASPT2, CASPT2-K
   Simone Kossmann        : Meta GGA functionals, TD-DFT gradient, OOMP2, MP2 Hessian
   Martin Krupicka        : Initial AUTO-CI
   Lucas Lang             : DCDCAS
   Marvin Lechner         : AUTO-CI (C++ implementation), FIC-MRCC
   Dagmar Lenk            : GEPOL surface, SMD
   Dimitrios Liakos       : Extrapolation schemes; Compound Job, initial MDCI parallelization
   Dimitrios Manganas     : Further ROCIS development; embedding schemes
   Dimitrios Pantazis     : SARC Basis sets
   Anastasios Papadopoulos: AUTO-CI, single reference methods and gradients
   Taras Petrenko         : DFT Hessian,TD-DFT gradient, ASA, ECA, R-Raman, ABS, FL, XAS/XES, NRVS
   Peter Pinski           : DLPNO-MP2, DLPNO-MP2 Gradient
   Christoph Reimann      : Effective Core Potentials
   Marius Retegan         : Local ZFS, SOC
   Christoph Riplinger    : Optimizer, TS searches, QM/MM, DLPNO-CCSD(T), (RO)-DLPNO pert. Triples
   Tobias Risthaus        : Range-separated hybrids, TD-DFT gradient, RPA, STAB
   Michael Roemelt        : Original ROCIS implementation
   Masaaki Saitow         : Open-shell DLPNO-CCSD energy and density
   Barbara Sandhoefer     : DKH picture change effects
   Avijit Sen             : IP-ROCIS
   Kantharuban Sivalingam : CASSCF convergence, NEVPT2, FIC-MRCI
   Bernardo de Souza      : ESD, SOC TD-DFT
   Georgi Stoychev        : AutoAux, RI-MP2 NMR, DLPNO-MP2 response
   Willem Van den Heuvel  : Paramagnetic NMR
   Boris Wezisla          : Elementary symmetry handling
   Frank Wennmohs         : Technical directorship


 We gratefully acknowledge several colleagues who have allowed us to
 interface, adapt or use parts of their codes:
   Stefan Grimme, W. Hujo, H. Kruse, P. Pracht,  : VdW corrections, initial TS optimization,
                  C. Bannwarth, S. Ehlert          DFT functionals, gCP, sTDA/sTD-DF
   Ed Valeev, F. Pavosevic, A. Kumar             : LibInt (2-el integral package), F12 methods
   Garnet Chan, S. Sharma, J. Yang, R. Olivares  : DMRG
   Ulf Ekstrom                                   : XCFun DFT Library
   Mihaly Kallay                                 : mrcc  (arbitrary order and MRCC methods)
   Jiri Pittner, Ondrej Demel                    : Mk-CCSD
   Frank Weinhold                                : gennbo (NPA and NBO analysis)
   Christopher J. Cramer and Donald G. Truhlar   : smd solvation model
   Lars Goerigk                                  : TD-DFT with DH, B97 family of functionals
   V. Asgeirsson, H. Jonsson                     : NEB implementation
   FAccTs GmbH                                   : IRC, NEB, NEB-TS, DLPNO-Multilevel, CI-OPT
                                                   MM, QMMM, 2- and 3-layer-ONIOM, Crystal-QMMM,
                                                   LR-CPCM, SF, NACMEs, symmetry and pop. for TD-DFT,
                                                   nearIR, NL-DFT gradient (VV10), updates on ESD,
                                                   ML-optimized integration grids
   S Lehtola, MJT Oliveira, MAL Marques          : LibXC Library
   Liviu Ungur et al                             : ANISO software


 Your calculation uses the libint2 library for the computation of 2-el integrals
 For citations please refer to: http://libint.valeyev.net

 Your ORCA version has been built with support for libXC version: 5.1.0
 For citations please refer to: https://tddft.org/programs/libxc/

 This ORCA versions uses:
   CBLAS   interface :  Fast vector & matrix operations
   LAPACKE interface :  Fast linear algebra routines
   SCALAPACK package :  Parallel linear algebra routines
   Shared memory     :  Shared parallel matrices
   BLAS/LAPACK       :  OpenBLAS 0.3.15  USE64BITINT DYNAMIC_ARCH NO_AFFINITY SkylakeX SINGLE_THREADED
        Core in use  :  SkylakeX
   Copyright (c) 2011-2014, The OpenBLAS Project


================================================================================

----- Orbital basis set information -----
Your calculation utilizes the basis: EPR-III
   V. Barone, in Recent Advances in Density Functional Methods, Part 1 (ed. D. P. Chong), World Scientific, Singapore, 1995, p. 287.
   N. Rega, M. Cossi and V. Barone, J. Chem. Phys. 105, 11060 (1996).

----- AuxJ basis set information -----
Your calculation utilizes the AutoAux generation procedure.
  G. L. Stoychev, A. A. Auer, F. Neese, J. Chem. Theory Comput. 13, 554 (2017)

----- AuxC basis set information -----
Your calculation utilizes the AutoAux generation procedure.
  G. L. Stoychev, A. A. Auer, F. Neese, J. Chem. Theory Comput. 13, 554 (2017)

----- AuxJK basis set information -----
Your calculation utilizes the AutoAux generation procedure.
  G. L. Stoychev, A. A. Auer, F. Neese, J. Chem. Theory Comput. 13, 554 (2017)

================================================================================
                                        WARNINGS
                       Please study these warnings very carefully!
================================================================================


WARNING: your system is open-shell and RHF/RKS was chosen
  ===> : WILL SWITCH to UHF/UKS


INFO   : the flag for use of the SHARK integral package has been found!

================================================================================
                                       INPUT FILE
================================================================================
NAME = /home/rwth0701/scratch/cs681498/orcajob__30556461-dAsq/14232.inp
|  1> !B3LYP EPR-III Autoaux
|  2> !PAL4
|  3> 
|  4> * xyz 0 2
|  5>  C    -63.1063780213    -85.9780741093    -26.4168059387
|  6>  H    -62.4595699465    -86.8533682766    -26.5177112163
|  7>  H    -62.7885636485    -84.9674409570    -26.3013709051
|  8>  H    -64.2010991567    -86.0103550018    -26.4559494781
|  9> *
| 10> 
| 11> %EPRNMR
| 12>         GTENSOR   TRUE
| 13>         NUCLEI    = ALL H {AISO, ADIP, AORB}
| 14>         NUCLEI    = ALL C {AISO, ADIP, AORB}
| 15> END
| 16> 
| 17> 
| 18>                          ****END OF INPUT****
================================================================================

                       ****************************
                       * Single Point Calculation *
                       ****************************

---------------------------------
CARTESIAN COORDINATES (ANGSTROEM)
---------------------------------
  C    -63.106378  -85.978074  -26.416806
  H    -62.459570  -86.853368  -26.517711
  H    -62.788564  -84.967441  -26.301371
  H    -64.201099  -86.010355  -26.455949

----------------------------
CARTESIAN COORDINATES (A.U.)
----------------------------
  NO LB      ZA    FRAG     MASS         X           Y           Z
   0 C     6.0000    0    12.011  -119.253772  -162.475014  -49.920529
   1 H     1.0000    0     1.008  -118.031482  -164.129080  -50.111212
   2 H     1.0000    0     1.008  -118.653190  -160.565194  -49.702388
   3 H     1.0000    0     1.008  -121.322495  -162.536016  -49.994499

--------------------------------
INTERNAL COORDINATES (ANGSTROEM)
--------------------------------
 C      0   0   0     0.000000000000     0.00000000     0.00000000
 H      1   0   0     1.093015297232     0.00000000     0.00000000
 H      1   2   0     1.065697232364   126.36677541     0.00000000
 H      1   2   3     1.095896271090   124.34982307   177.69994164

---------------------------
INTERNAL COORDINATES (A.U.)
---------------------------
 C      0   0   0     0.000000000000     0.00000000     0.00000000
 H      1   0   0     2.065499571955     0.00000000     0.00000000
 H      1   2   0     2.013875910846   126.36677541     0.00000000
 H      1   2   3     2.070943823545   124.34982307   177.69994164

---------------------
BASIS SET INFORMATION
---------------------
There are 2 groups of distinct atoms

 Group   1 Type C   : 12s8p2d1f contracted to 8s5p2d1f pattern {51111111/41111/11/1}
 Group   2 Type H   : 7s2p contracted to 5s2p pattern {31111/11}

Atom   0C    basis set group =>   1
Atom   1H    basis set group =>   2
Atom   2H    basis set group =>   2
Atom   3H    basis set group =>   2
---------------------------------
AUXILIARY/J BASIS SET INFORMATION
---------------------------------
There are 2 groups of distinct atoms

 Group   1 Type C   : 20s17p16d8f3g contracted to 20s17p16d8f3g pattern {11111111111111111111/11111111111111111/1111111111111111/11111111/111}
 Group   2 Type H   : 17s7p3d contracted to 17s7p3d pattern {11111111111111111/1111111/111}

Atom   0C    basis set group =>   1
Atom   1H    basis set group =>   2
Atom   2H    basis set group =>   2
Atom   3H    basis set group =>   2
---------------------------------
AUXILIARY/C BASIS SET INFORMATION
---------------------------------
There are 2 groups of distinct atoms

 Group   1 Type C   : 20s17p16d8f3g contracted to 20s17p16d8f3g pattern {11111111111111111111/11111111111111111/1111111111111111/11111111/111}
 Group   2 Type H   : 17s7p3d contracted to 17s7p3d pattern {11111111111111111/1111111/111}

Atom   0C    basis set group =>   1
Atom   1H    basis set group =>   2
Atom   2H    basis set group =>   2
Atom   3H    basis set group =>   2
----------------------------------
AUXILIARY/JK BASIS SET INFORMATION
----------------------------------
There are 2 groups of distinct atoms

 Group   1 Type C   : 20s17p16d8f3g contracted to 20s17p16d8f3g pattern {11111111111111111111/11111111111111111/1111111111111111/11111111/111}
 Group   2 Type H   : 17s7p3d contracted to 17s7p3d pattern {11111111111111111/1111111/111}

Atom   0C    basis set group =>   1
Atom   1H    basis set group =>   2
Atom   2H    basis set group =>   2
Atom   3H    basis set group =>   2


           ************************************************************
           *        Program running with 4 parallel MPI-processes     *
           *              working on a common directory               *
           ************************************************************
------------------------------------------------------------------------------
                           ORCA GTO INTEGRAL CALCULATION
                           -- RI-GTO INTEGRALS CHOSEN --
------------------------------------------------------------------------------
------------------------------------------------------------------------------
                   ___                                                        
                  /   \      - P O W E R E D   B Y -                         
                 /     \                                                     
                 |  |  |   _    _      __       _____    __    __             
                 |  |  |  | |  | |    /  \     |  _  \  |  |  /  |          
                  \  \/   | |  | |   /    \    | | | |  |  | /  /          
                 / \  \   | |__| |  /  /\  \   | |_| |  |  |/  /          
                |  |  |   |  __  | /  /__\  \  |    /   |      \           
                |  |  |   | |  | | |   __   |  |    \   |  |\   \          
                \     /   | |  | | |  |  |  |  | |\  \  |  | \   \       
                 \___/    |_|  |_| |__|  |__|  |_| \__\ |__|  \__/        
                                                                              
                      - O R C A' S   B I G   F R I E N D -                    
                                      &                                       
                       - I N T E G R A L  F E E D E R -                       
                                                                              
 v1 FN, 2020, v2 2021                                                         
------------------------------------------------------------------------------


Reading SHARK input file /home/rwth0701/scratch/cs681498/orcajob__30556461-dAsq/14232.SHARKINP.tmp ... ok
----------------------
SHARK INTEGRAL PACKAGE
----------------------

Number of atoms                             ...      4
Number of basis functions                   ...     73
Number of shells                            ...     37
Maximum angular momentum                    ...      3
Integral batch strategy                     ... SHARK/LIBINT Hybrid
RI-J (if used) integral strategy            ... SPLIT-RIJ (Revised 2003 algorithm where possible)
Printlevel                                  ...      1
Contraction scheme used                     ... SEGMENTED contraction
Coulomb Range Separation                    ... NOT USED
Exchange Range Separation                   ... NOT USED
Finite Nucleus Model                        ... NOT USED
Auxiliary Coulomb fitting basis             ... AVAILABLE
   # of basis functions in Aux-J            ...    393
   # of shells in Aux-J                     ...    145
   Maximum angular momentum in Aux-J        ...      4
Auxiliary J/K fitting basis                 ... AVAILABLE
   # of basis functions in Aux-JK           ...    393
   # of shells in Aux-JK                    ...    145
   Maximum angular momentum in Aux-JK       ...      4
Auxiliary Correlation fitting basis         ... AVAILABLE
   # of basis functions in Aux-C            ...    393
   # of shells in Aux-C                     ...    145
   Maximum angular momentum in Aux-C        ...      4
Auxiliary 'external' fitting basis          ... NOT available
Integral threshold                          ...     1.000000e-10
Primitive cut-off                           ...     1.000000e-11
Primitive pair pre-selection threshold      ...     1.000000e-11

Calculating pre-screening integrals         ... done (  0.0 sec) Dimension = 37
Organizing shell pair data                  ... done (  0.0 sec)
Shell pair information
Total number of shell pairs                 ...       703
Shell pairs after pre-screening             ...       688
Total number of primitive shell pairs       ...      1300
Primitive shell pairs kept                  ...      1183
          la=0 lb=0:    261 shell pairs
          la=1 lb=0:    253 shell pairs
          la=1 lb=1:     66 shell pairs
          la=2 lb=0:     46 shell pairs
          la=2 lb=1:     22 shell pairs
          la=2 lb=2:      3 shell pairs
          la=3 lb=0:     23 shell pairs
          la=3 lb=1:     11 shell pairs
          la=3 lb=2:      2 shell pairs
          la=3 lb=3:      1 shell pairs

Calculating one electron integrals          ... done (  0.0 sec)
Calculating RI/J V-Matrix + Cholesky decomp.... done (  0.1 sec)
Calculating RI/JK V-Matrix + Cholesky decomp... done (  0.1 sec)
Calculating RI/C V-Matrix + Cholesky decomp.... done (  0.1 sec)
Calculating Nuclear repulsion               ... done (  0.0 sec) ENN=      9.629678137887 Eh

SHARK setup successfully completed in   0.7 seconds

Maximum memory used throughout the entire GTOINT-calculation: 13.7 MB


           ************************************************************
           *        Program running with 4 parallel MPI-processes     *
           *              working on a common directory               *
           ************************************************************
-------------------------------------------------------------------------------
                                 ORCA SCF
-------------------------------------------------------------------------------

------------
SCF SETTINGS
------------
Hamiltonian:
 Density Functional     Method          .... DFT(GTOs)
 Exchange Functional    Exchange        .... B88
   X-Alpha parameter    XAlpha          ....  0.666667
   Becke's b parameter  XBeta           ....  0.004200
 Correlation Functional Correlation     .... LYP
 LDA part of GGA corr.  LDAOpt          .... VWN-5
 Gradients option       PostSCFGGA      .... off
 Hybrid DFT is turned on
   Fraction HF Exchange ScalHFX         ....  0.200000
   Scaling of DF-GGA-X  ScalDFX         ....  0.720000
   Scaling of DF-GGA-C  ScalDFC         ....  0.810000
   Scaling of DF-LDA-C  ScalLDAC        ....  1.000000
   Perturbative correction              ....  0.000000
   Density functional embedding theory  .... OFF
   NL short-range parameter             ....  4.800000
 RI-approximation to the Coulomb term is turned on
   Number of AuxJ basis functions       .... 393
   RIJ-COSX (HFX calculated with COS-X)).... on


General Settings:
 Integral files         IntName         .... /home/rwth0701/scratch/cs681498/orcajob__30556461-dAsq/14232
 Hartree-Fock type      HFTyp           .... UHF
 Total Charge           Charge          ....    0
 Multiplicity           Mult            ....    2
 Number of Electrons    NEL             ....    9
 Basis Dimension        Dim             ....   73
 Nuclear Repulsion      ENuc            ....      9.6296781379 Eh

Convergence Acceleration:
 DIIS                   CNVDIIS         .... on
   Start iteration      DIISMaxIt       ....    12
   Startup error        DIISStart       ....  0.200000
   # of expansion vecs  DIISMaxEq       ....     5
   Bias factor          DIISBfac        ....   1.050
   Max. coefficient     DIISMaxC        ....  10.000
 Trust-Rad. Augm. Hess. CNVTRAH         .... auto
   Auto Start mean grad. ratio tolernc. ....  1.125000
   Auto Start start iteration           ....    20
   Auto Start num. interpolation iter.  ....    10
   Max. Number of Micro iterations      ....    16
   Max. Number of Macro iterations      .... Maxiter - #DIIS iter
   Number of Davidson start vectors     ....     2
   Converg. threshold I  (grad. norm)   ....   5.000e-05
   Converg. threshold II (energy diff.) ....   1.000e-06
   Grad. Scal. Fac. for Micro threshold ....   0.100
   Minimum threshold for Micro iter.    ....   0.010
   NR start threshold (gradient norm)   ....   0.001
   Initial trust radius                 ....   0.400
   Minimum AH scaling param. (alpha)    ....   1.000
   Maximum AH scaling param. (alpha)    .... 1000.000
   Orbital update algorithm             .... Taylor
   White noise on init. David. guess    .... on
   Maximum white noise                  ....   0.010
   Quad. conv. algorithm                .... NR
 SOSCF                  CNVSOSCF        .... off
 Level Shifting         CNVShift        .... on
   Level shift para.    LevelShift      ....    0.2500
   Turn off err/grad.   ShiftErr        ....    0.0010
 Zerner damping         CNVZerner       .... off
 Static damping         CNVDamp         .... on
   Fraction old density DampFac         ....    0.7000
   Max. Damping (<1)    DampMax         ....    0.9800
   Min. Damping (>=0)   DampMin         ....    0.0000
   Turn off err/grad.   DampErr         ....    0.1000
 Fernandez-Rico         CNVRico         .... off

SCF Procedure:
 Maximum # iterations   MaxIter         ....   125
 SCF integral mode      SCFMode         .... Direct
   Integral package                     .... SHARK and LIBINT hybrid scheme
 Reset frequency        DirectResetFreq ....    20
 Integral Threshold     Thresh          ....  1.000e-10 Eh
 Primitive CutOff       TCut            ....  1.000e-11 Eh

Convergence Tolerance:
 Convergence Check Mode ConvCheckMode   .... Total+1el-Energy
 Convergence forced     ConvForced      .... 0
 Energy Change          TolE            ....  1.000e-06 Eh
 1-El. energy change                    ....  1.000e-03 Eh
 DIIS Error             TolErr          ....  1.000e-06


Diagonalization of the overlap matrix:
Smallest eigenvalue                        ... 1.583e-03
Time for diagonalization                   ...    0.002 sec
Threshold for overlap eigenvalues          ... 1.000e-08
Number of eigenvalues below threshold      ... 0
Time for construction of square roots      ...    0.027 sec
Total time needed                          ...    0.029 sec

Time for model grid setup =    0.056 sec

------------------------------
INITIAL GUESS: MODEL POTENTIAL
------------------------------
Loading Hartree-Fock densities                     ... done
Calculating cut-offs                               ... done
Initializing the effective Hamiltonian             ... done
Setting up the integral package (SHARK)            ... done
Starting the Coulomb interaction                   ... done (   0.1 sec)
Reading the grid                                   ... done
Mapping shells                                     ... done
Starting the XC term evaluation                    ... done (   0.0 sec)
  promolecular density results
     # of electrons  =      8.998509602
     EX              =     -5.968564371
     EC              =     -0.260203412
     EX+EC           =     -6.228767783
Transforming the Hamiltonian                       ... done (   0.0 sec)
Diagonalizing the Hamiltonian                      ... done (   0.0 sec)
Back transforming the eigenvectors                 ... done (   0.0 sec)
Now organizing SCF variables                       ... done
                      ------------------
                      INITIAL GUESS DONE (   0.1 sec)
                      ------------------
-------------------
DFT GRID GENERATION
-------------------

General Integration Accuracy     IntAcc      ... 4.388
Radial Grid Type                 RadialGrid  ... OptM3 with GC (2021)
Angular Grid (max. ang.)         AngularGrid ... 4 (Lebedev-302)
Angular grid pruning method      GridPruning ... 4 (adaptive)
Weight generation scheme         WeightScheme... Becke
Basis function cutoff            BFCut       ... 1.0000e-10
Integration weight cutoff        WCut        ... 1.0000e-14
Angular grids for H and He will be reduced by one unit
Partially contracted basis set               ... off
Rotationally invariant grid construction     ... off

Total number of grid points                  ...    17035
Total number of batches                      ...      268
Average number of points per batch           ...       63
Average number of grid points per atom       ...     4259
Time for grid setup =    0.148 sec

--------------------
COSX GRID GENERATION
--------------------

GRIDX 1
-------
General Integration Accuracy     IntAcc      ... 3.816
Radial Grid Type                 RadialGrid  ... OptM3 with GC (2021)
Angular Grid (max. ang.)         AngularGrid ... 1 (Lebedev-50)
Angular grid pruning method      GridPruning ... 4 (adaptive)
Weight generation scheme         WeightScheme... Becke
Basis function cutoff            BFCut       ... 1.0000e-10
Integration weight cutoff        WCut        ... 1.0000e-14
Angular grids for H and He will be reduced by one unit
Partially contracted basis set               ... on
Rotationally invariant grid construction     ... off

Total number of grid points                  ...     2140
Total number of batches                      ...       35
Average number of points per batch           ...       61
Average number of grid points per atom       ...      535
UseSFitting                                  ... on

GRIDX 2
-------
General Integration Accuracy     IntAcc      ... 4.020
Radial Grid Type                 RadialGrid  ... OptM3 with GC (2021)
Angular Grid (max. ang.)         AngularGrid ... 2 (Lebedev-110)
Angular grid pruning method      GridPruning ... 4 (adaptive)
Weight generation scheme         WeightScheme... Becke
Basis function cutoff            BFCut       ... 1.0000e-10
Integration weight cutoff        WCut        ... 1.0000e-14
Angular grids for H and He will be reduced by one unit
Partially contracted basis set               ... on
Rotationally invariant grid construction     ... off

Total number of grid points                  ...     5046
Total number of batches                      ...       81
Average number of points per batch           ...       62
Average number of grid points per atom       ...     1262
UseSFitting                                  ... on

GRIDX 3
-------
General Integration Accuracy     IntAcc      ... 4.338
Radial Grid Type                 RadialGrid  ... OptM3 with GC (2021)
Angular Grid (max. ang.)         AngularGrid ... 3 (Lebedev-194)
Angular grid pruning method      GridPruning ... 4 (adaptive)
Weight generation scheme         WeightScheme... Becke
Basis function cutoff            BFCut       ... 1.0000e-10
Integration weight cutoff        WCut        ... 1.0000e-14
Angular grids for H and He will be reduced by one unit
Partially contracted basis set               ... on
Rotationally invariant grid construction     ... off

Total number of grid points                  ...    11728
Total number of batches                      ...      184
Average number of points per batch           ...       63
Average number of grid points per atom       ...     2932
UseSFitting                                  ... on

Time for X-Grid setup             =    0.281 sec

--------------
SCF ITERATIONS
--------------
ITER       Energy         Delta-E        Max-DP      RMS-DP      [F,P]     Damp
               ***  Starting incremental Fock matrix formation  ***
  0    -39.7842065339   0.000000000000 0.01526302  0.00049846  0.0893402 0.7000
  1    -39.8027870885  -0.018580554594 0.00955815  0.00037205  0.0471442 0.7000
                               ***Turning on DIIS***
  2    -39.8110242600  -0.008237171584 0.01556062  0.00064930  0.0192366 0.0000
  3    -39.8222980949  -0.011273834873 0.00858482  0.00028034  0.0282298 0.0000
  4    -39.8257219952  -0.003423900303 0.00300982  0.00007840  0.0058067 0.0000
  5    -39.8258608132  -0.000138817970 0.00107509  0.00003268  0.0019279 0.0000
  6    -39.8258781742  -0.000017361032 0.00088839  0.00002508  0.0008126 0.0000
               *** Restarting incremental Fock matrix formation ***
                                   *** Resetting DIIS ***
  7    -39.8258818936  -0.000003719347 0.00008711  0.00000308  0.0000910 0.0000
                 **** Energy Check signals convergence ****

               *****************************************************
               *                     SUCCESS                       *
               *           SCF CONVERGED AFTER   8 CYCLES          *
               *****************************************************

Old exchange energy                            =     -1.239987433 Eh
New exchange energy                            =     -1.239986907 Eh
Exchange energy change after final integration =      0.000000526 Eh
Total energy after final integration           =    -39.825881446 Eh
Final COS-X integration done in                =     0.172 sec

----------------
TOTAL SCF ENERGY
----------------

Total Energy       :          -39.82588145 Eh           -1083.71733 eV

Components:
Nuclear Repulsion  :            9.62967814 Eh             262.03686 eV
Electronic Energy  :          -49.45555958 Eh           -1345.75419 eV
One Electron Energy:          -71.56795250 Eh           -1947.46299 eV
Two Electron Energy:           22.11239292 Eh             601.70880 eV
Max COSX asymmetry :            0.00000005 Eh               0.00000 eV

Virial components:
Potential Energy   :          -79.42814358 Eh           -2161.34967 eV
Kinetic Energy     :           39.60226213 Eh            1077.63234 eV
Virial Ratio       :            2.00564663


DFT components:
N(Alpha)           :        4.999999632414 electrons
N(Beta)            :        4.000000243256 electrons
N(Total)           :        8.999999875670 electrons
E(X)               :       -4.908268317148 Eh       
E(C)               :       -0.309443894385 Eh       
E(XC)              :       -5.217712211533 Eh       
DFET-embed. en.    :        0.000000000000 Eh       

---------------
SCF CONVERGENCE
---------------

  Last Energy change         ...   -7.8784e-08  Tolerance :   1.0000e-06
  Last MAX-Density change    ...    0.0000e+00  Tolerance :   1.0000e-05
  Last RMS-Density change    ...    0.0000e+00  Tolerance :   1.0000e-06
  Last DIIS Error            ...    6.6298e-05  Tolerance :   1.0000e-06

             **** THE GBW FILE WAS UPDATED (/home/rwth0701/scratch/cs681498/orcajob__30556461-dAsq/14232.gbw) ****
             **** DENSITY /home/rwth0701/scratch/cs681498/orcajob__30556461-dAsq/14232.scfp WAS UPDATED ****
             **** ENERGY FILE WAS UPDATED (/home/rwth0701/scratch/cs681498/orcajob__30556461-dAsq/14232.en.tmp) ****
----------------------
UHF SPIN CONTAMINATION
----------------------

Warning: in a DFT calculation there is little theoretical justification to 
         calculate <S**2> as in Hartree-Fock theory. We will do it anyways
         but you should keep in mind that the values have only limited relevance

Expectation value of <S**2>     :     0.753695
Ideal value S*(S+1) for S=0.5   :     0.750000
Deviation                       :     0.003695

             **** THE GBW FILE WAS UPDATED (/home/rwth0701/scratch/cs681498/orcajob__30556461-dAsq/14232.gbw) ****
             **** DENSITY /home/rwth0701/scratch/cs681498/orcajob__30556461-dAsq/14232.scfp WAS UPDATED ****
----------------
ORBITAL ENERGIES
----------------
                 SPIN UP ORBITALS
  NO   OCC          E(Eh)            E(eV) 
   0   1.0000     -10.185626      -277.1650 
   1   1.0000      -0.686906       -18.6917 
   2   1.0000      -0.436273       -11.8716 
   3   1.0000      -0.406245       -11.0545 
   4   1.0000      -0.234788        -6.3889 
   5   0.0000       0.000764         0.0208 
   6   0.0000       0.034975         0.9517 
   7   0.0000       0.038396         1.0448 
   8   0.0000       0.047464         1.2916 
   9   0.0000       0.086783         2.3615 
  10   0.0000       0.088339         2.4038 
  11   0.0000       0.100589         2.7372 
  12   0.0000       0.220202         5.9920 
  13   0.0000       0.224684         6.1140 
  14   0.0000       0.246257         6.7010 
  15   0.0000       0.276115         7.5135 
  16   0.0000       0.297159         8.0861 
  17   0.0000       0.315009         8.5718 
  18   0.0000       0.345172         9.3926 
  19   0.0000       0.547436        14.8965 
  20   0.0000       0.569233        15.4896 
  21   0.0000       0.734401        19.9841 
  22   0.0000       0.743880        20.2420 
  23   0.0000       0.767164        20.8756 
  24   0.0000       0.823582        22.4108 
  25   0.0000       0.869266        23.6539 
  26   0.0000       0.921274        25.0691 
  27   0.0000       0.938718        25.5438 
  28   0.0000       0.956219        26.0201 
  29   0.0000       1.055236        28.7144 
  30   0.0000       1.061261        28.8784 
  31   0.0000       1.129180        30.7265 
  32   0.0000       1.165298        31.7094 
  33   0.0000       1.167852        31.7789 
  34   0.0000       1.454550        39.5803 
  35   0.0000       1.466481        39.9050 
  36   0.0000       1.502734        40.8915 
  37   0.0000       1.709118        46.5075 
  38   0.0000       1.738825        47.3158 
  39   0.0000       1.759120        47.8681 
  40   0.0000       2.716090        73.9086 
  41   0.0000       2.731545        74.3291 
  42   0.0000       2.869270        78.0768 
  43   0.0000       2.891457        78.6805 
  44   0.0000       2.945043        80.1387 
  45   0.0000       2.972884        80.8963 
  46   0.0000       2.984855        81.2220 
  47   0.0000       3.151328        85.7520 
  48   0.0000       3.167963        86.2047 
  49   0.0000       3.250089        88.4394 
  50   0.0000       3.256830        88.6228 
  51   0.0000       3.710109       100.9572 
  52   0.0000       3.717838       101.1675 
  53   0.0000       3.785159       102.9994 
  54   0.0000       3.934593       107.0657 
  55   0.0000       3.955332       107.6301 
  56   0.0000       4.053029       110.2885 
  57   0.0000       4.127317       112.3100 
  58   0.0000       4.145557       112.8063 
  59   0.0000       4.170832       113.4941 
  60   0.0000       4.599096       125.1478 
  61   0.0000       5.023370       136.6929 
  62   0.0000       5.330742       145.0569 
  63   0.0000       5.466906       148.7621 
  64   0.0000       5.558328       151.2498 
  65   0.0000       6.059679       164.8922 
  66   0.0000       6.139108       167.0536 
  67   0.0000       7.730188       210.3491 
  68   0.0000      29.065732       790.9188 
  69   0.0000      37.136222      1010.5280 
  70   0.0000      37.213319      1012.6259 
  71   0.0000      37.216050      1012.7002 
  72   0.0000     133.521794      3633.3127 

                 SPIN DOWN ORBITALS
  NO   OCC          E(Eh)            E(eV) 
   0   1.0000     -10.171167      -276.7715 
   1   1.0000      -0.647493       -17.6192 
   2   1.0000      -0.427054       -11.6207 
   3   1.0000      -0.396547       -10.7906 
   4   0.0000      -0.077322        -2.1040 
   5   0.0000       0.003949         0.1075 
   6   0.0000       0.034649         0.9429 
   7   0.0000       0.037976         1.0334 
   8   0.0000       0.060734         1.6527 
   9   0.0000       0.088590         2.4107 
  10   0.0000       0.091170         2.4809 
  11   0.0000       0.102871         2.7993 
  12   0.0000       0.221135         6.0174 
  13   0.0000       0.226429         6.1614 
  14   0.0000       0.265208         7.2167 
  15   0.0000       0.302199         8.2233 
  16   0.0000       0.310556         8.4507 
  17   0.0000       0.321691         8.7536 
  18   0.0000       0.357821         9.7368 
  19   0.0000       0.573833        15.6148 
  20   0.0000       0.596877        16.2419 
  21   0.0000       0.735424        20.0119 
  22   0.0000       0.746134        20.3033 
  23   0.0000       0.791809        21.5462 
  24   0.0000       0.822090        22.3702 
  25   0.0000       0.875516        23.8240 
  26   0.0000       0.925573        25.1861 
  27   0.0000       0.955593        26.0030 
  28   0.0000       0.974995        26.5310 
  29   0.0000       1.076517        29.2935 
  30   0.0000       1.119776        30.4707 
  31   0.0000       1.153207        31.3804 
  32   0.0000       1.177466        32.0405 
  33   0.0000       1.180716        32.1289 
  34   0.0000       1.465412        39.8759 
  35   0.0000       1.482331        40.3363 
  36   0.0000       1.514056        41.1996 
  37   0.0000       1.715258        46.6746 
  38   0.0000       1.747364        47.5482 
  39   0.0000       1.765224        48.0342 
  40   0.0000       2.756922        75.0197 
  41   0.0000       2.772240        75.4365 
  42   0.0000       2.871594        78.1401 
  43   0.0000       2.934521        79.8524 
  44   0.0000       2.965633        80.6990 
  45   0.0000       3.000833        81.6568 
  46   0.0000       3.037126        82.6444 
  47   0.0000       3.202715        87.1503 
  48   0.0000       3.218983        87.5930 
  49   0.0000       3.307485        90.0013 
  50   0.0000       3.313509        90.1652 
  51   0.0000       3.711514       100.9954 
  52   0.0000       3.778252       102.8115 
  53   0.0000       3.782862       102.9369 
  54   0.0000       3.936818       107.1263 
  55   0.0000       3.969903       108.0265 
  56   0.0000       4.068535       110.7105 
  57   0.0000       4.131368       112.4202 
  58   0.0000       4.170940       113.4970 
  59   0.0000       4.172613       113.5426 
  60   0.0000       4.599114       125.1483 
  61   0.0000       5.046207       137.3143 
  62   0.0000       5.329561       145.0247 
  63   0.0000       5.465248       148.7170 
  64   0.0000       5.554715       151.1515 
  65   0.0000       6.063487       164.9959 
  66   0.0000       6.141135       167.1088 
  67   0.0000       7.765393       211.3071 
  68   0.0000      29.092570       791.6491 
  69   0.0000      37.124402      1010.2063 
  70   0.0000      37.200876      1012.2873 
  71   0.0000      37.204590      1012.3884 
  72   0.0000     133.529669      3633.5270 

                    ********************************
                    * MULLIKEN POPULATION ANALYSIS *
                    ********************************

--------------------------------------------
MULLIKEN ATOMIC CHARGES AND SPIN POPULATIONS
--------------------------------------------
   0 C :   -0.429492    1.104904
   1 H :    0.150603   -0.034120
   2 H :    0.141924   -0.034443
   3 H :    0.136965   -0.036341
Sum of atomic charges         :   -0.0000000
Sum of atomic spin populations:    1.0000000

-----------------------------------------------------
MULLIKEN REDUCED ORBITAL CHARGES AND SPIN POPULATIONS
-----------------------------------------------------
CHARGE
  0 C s       :     3.333201  s :     3.333201
      pz      :     0.969203  p :     3.068896
      px      :     1.051112
      py      :     1.048581
      dz2     :     0.005561  d :     0.024382
      dxz     :     0.000136
      dyz     :     0.000384
      dx2y2   :     0.011411
      dxy     :     0.006890
      f0      :     0.000068  f :     0.003014
      f+1     :     0.000661
      f-1     :     0.000674
      f+2     :     0.000040
      f-2     :     0.000049
      f+3     :     0.001263
      f-3     :     0.000259
  1 H s       :     0.822264  s :     0.822264
      pz      :     0.010848  p :     0.027132
      px      :     0.007641
      py      :     0.008643
  2 H s       :     0.830248  s :     0.830248
      pz      :     0.010756  p :     0.027828
      px      :     0.007264
      py      :     0.009809
  3 H s       :     0.836691  s :     0.836691
      pz      :     0.010128  p :     0.026343
      px      :     0.009720
      py      :     0.006496

SPIN
  0 C s       :     0.067723  s :     0.067723
      pz      :     0.954670  p :     1.041522
      px      :     0.037655
      py      :     0.049197
      dz2     :    -0.004541  d :    -0.003001
      dxz     :     0.000005
      dyz     :    -0.000176
      dx2y2   :     0.001153
      dxy     :     0.000558
      f0      :    -0.000047  f :    -0.001339
      f+1     :    -0.000607
      f-1     :    -0.000592
      f+2     :    -0.000025
      f-2     :    -0.000017
      f+3     :    -0.000052
      f-3     :    -0.000000
  1 H s       :    -0.044835  s :    -0.044835
      pz      :     0.010711  p :     0.010715
      px      :    -0.000100
      py      :     0.000104
  2 H s       :    -0.044586  s :    -0.044586
      pz      :     0.010634  p :     0.010143
      px      :    -0.000522
      py      :     0.000031
  3 H s       :    -0.045903  s :    -0.045903
      pz      :     0.010022  p :     0.009561
      px      :    -0.000156
      py      :    -0.000306


                     *******************************
                     * LOEWDIN POPULATION ANALYSIS *
                     *******************************

-------------------------------------------
LOEWDIN ATOMIC CHARGES AND SPIN POPULATIONS
-------------------------------------------
   0 C :   -0.155073    0.909667
   1 H :    0.057313    0.028433
   2 H :    0.041715    0.033407
   3 H :    0.056045    0.028492

----------------------------------------------------
LOEWDIN REDUCED ORBITAL CHARGES AND SPIN POPULATIONS
----------------------------------------------------
CHARGE
  0 C s       :     2.884563  s :     2.884563
      pz      :     0.877256  p :     3.172151
      px      :     1.148673
      py      :     1.146222
      dz2     :     0.006955  d :     0.090680
      dxz     :     0.000587
      dyz     :     0.000923
      dx2y2   :     0.048886
      dxy     :     0.033330
      f0      :     0.000339  f :     0.007679
      f+1     :     0.001840
      f-1     :     0.001900
      f+2     :     0.000113
      f-2     :     0.000100
      f+3     :     0.002674
      f-3     :     0.000712
  1 H s       :     0.801840  s :     0.801840
      pz      :     0.041297  p :     0.140847
      px      :     0.044119
      py      :     0.055431
  2 H s       :     0.806157  s :     0.806157
      pz      :     0.044755  p :     0.152128
      px      :     0.039091
      py      :     0.068281
  3 H s       :     0.801918  s :     0.801918
      pz      :     0.040788  p :     0.142037
      px      :     0.070011
      py      :     0.031238

SPIN
  0 C s       :     0.019562  s :     0.019562
      pz      :     0.860972  p :     0.898990
      px      :     0.013850
      py      :     0.024168
      dz2     :    -0.003956  d :    -0.007556
      dxz     :    -0.000028
      dyz     :    -0.000190
      dx2y2   :    -0.002013
      dxy     :    -0.001370
      f0      :     0.000121  f :    -0.001330
      f+1     :    -0.000559
      f-1     :    -0.000529
      f+2     :    -0.000026
      f-2     :    -0.000021
      f+3     :    -0.000265
      f-3     :    -0.000051
  1 H s       :    -0.018092  s :    -0.018092
      pz      :     0.040536  p :     0.046525
      px      :     0.002094
      py      :     0.003894
  2 H s       :    -0.016143  s :    -0.016143
      pz      :     0.043917  p :     0.049550
      px      :     0.000736
      py      :     0.004897
  3 H s       :    -0.017224  s :    -0.017224
      pz      :     0.040285  p :     0.045716
      px      :     0.004461
      py      :     0.000970


                      *****************************
                      * MAYER POPULATION ANALYSIS *
                      *****************************

  NA   - Mulliken gross atomic population
  ZA   - Total nuclear charge
  QA   - Mulliken gross atomic charge
  VA   - Mayer's total valence
  BVA  - Mayer's bonded valence
  FA   - Mayer's free valence

  ATOM       NA         ZA         QA         VA         BVA        FA
  0 C      6.4295     6.0000    -0.4295     3.8764     2.9310     0.9454
  1 H      0.8494     1.0000     0.1506     0.9869     0.9849     0.0020
  2 H      0.8581     1.0000     0.1419     0.9813     0.9793     0.0020
  3 H      0.8630     1.0000     0.1370     0.9815     0.9794     0.0021

  Mayer bond orders larger than 0.100000
B(  0-C ,  1-H ) :   0.9751 B(  0-C ,  2-H ) :   0.9777 B(  0-C ,  3-H ) :   0.9782 


-------
TIMINGS
-------

Total SCF time: 0 days 0 hours 0 min 5 sec 

Total time                  ....       5.361 sec
Sum of individual times     ....       4.675 sec  ( 87.2%)

Fock matrix formation       ....       3.889 sec  ( 72.5%)
  Split-RI-J                ....       0.357 sec  (  9.2% of F)
  Chain of spheres X        ....       0.874 sec  ( 22.5% of F)
  XC integration            ....       1.543 sec  ( 39.7% of F)
    Basis function eval.    ....       0.109 sec  (  7.1% of XC)
    Density eval.           ....       0.107 sec  (  6.9% of XC)
    XC-Functional eval.     ....       0.093 sec  (  6.1% of XC)
    XC-Potential eval.      ....       0.157 sec  ( 10.2% of XC)
Diagonalization             ....       0.044 sec  (  0.8%)
Density matrix formation    ....       0.012 sec  (  0.2%)
Population analysis         ....       0.066 sec  (  1.2%)
Initial guess               ....       0.086 sec  (  1.6%)
Orbital Transformation      ....       0.000 sec  (  0.0%)
Orbital Orthonormalization  ....       0.000 sec  (  0.0%)
DIIS solution               ....       0.095 sec  (  1.8%)
Grid generation             ....       0.485 sec  (  9.0%)

Maximum memory used throughout the entire SCF-calculation: 59.0 MB

-------------------------   --------------------
FINAL SINGLE POINT ENERGY       -39.825881446477
-------------------------   --------------------

   --->>> g-tensor requested, so NeedSOC=true

                            ***************************************
                            *     ORCA property calculations      *
                            ***************************************

                                    ---------------------
                                    Active property flags
                                    ---------------------
   (+) Dipole Moment
   (+) g-tensor
   (+) Nuclear properties (Hyperfine,Quadrupole)
   (+) Spin-Orbit Integrals are needed


------------------------------------------------------------------------------
                       ORCA ELECTRIC PROPERTIES CALCULATION
------------------------------------------------------------------------------

Dipole Moment Calculation                       ... on
Quadrupole Moment Calculation                   ... off
Polarizability Calculation                      ... off
GBWName                                         ... /home/rwth0701/scratch/cs681498/orcajob__30556461-dAsq/14232.gbw
Electron density                                ... /home/rwth0701/scratch/cs681498/orcajob__30556461-dAsq/14232.scfp
The origin for moment calculation is the CENTER OF MASS  = (-119.270254, -162.461957 -49.923647)

-------------
DIPOLE MOMENT
-------------
                                X             Y             Z
Electronic contribution:      0.09111      -0.06388       0.01026
Nuclear contribution   :     -0.09751       0.07724      -0.01845
                        -----------------------------------------
Total Dipole Moment    :     -0.00640       0.01336      -0.00818
                        -----------------------------------------
Magnitude (a.u.)       :      0.01692
Magnitude (Debye)      :      0.04302



--------------------
Rotational spectrum 
--------------------
 
Rotational constants in cm-1:    10.762515     8.463927     4.738720 
Rotational constants in MHz : 322652.073414 253742.140764 142063.250794 

 Dipole components along the rotational axes: 
x,y,z [a.u.] :     0.013748     0.002502    -0.009548 
x,y,z [Debye]:     0.034944     0.006361    -0.024270 

 


           ************************************************************
           *        Program running with 4 parallel MPI-processes     *
           *              working on a common directory               *
           ************************************************************
------------------------------------------------------------------------------
                         ORCA SPIN-ORBIT COUPLING CALCULATION
------------------------------------------------------------------------------

GBW file                                    ... /home/rwth0701/scratch/cs681498/orcajob__30556461-dAsq/14232.gbw
Input density                               ... /home/rwth0701/scratch/cs681498/orcajob__30556461-dAsq/14232.scfp
Output integrals                            ... /home/rwth0701/scratch/cs681498/orcajob__30556461-dAsq/14232
Operator type                               ... Mean-field/Effective potential
   One-Electron Terms                       ... 1
   Coulomb Contribution                     ... 3
   Exchange Contribution                    ... 3
   Correlation Contribution                 ... 0
   Maximum number of centers                ... 4
SHARK 2-electron RIJ-SOMF                   ... done (  0.1 sec)
SHARK 1-electron  MaxCenter=4               ... done (  0.0 sec)
SHARK 2-electron DoJ,X=0,1 MaxCenter=1      ... done (  0.1 sec)

Maximum memory used throughout the entire SOC-calculation: 11.3 MB
Total time for SOC:  3.706


           ************************************************************
           *        Program running with 4 parallel MPI-processes     *
           *              working on a common directory               *
           ************************************************************
------------------------------------------------------------------------------
                                ORCA EPR/NMR CALCULATION
------------------------------------------------------------------------------

GBWName                      ... /home/rwth0701/scratch/cs681498/orcajob__30556461-dAsq/14232.gbw
Electron density             ... /home/rwth0701/scratch/cs681498/orcajob__30556461-dAsq/14232.scfp
Spin density                 ... /home/rwth0701/scratch/cs681498/orcajob__30556461-dAsq/14232.scfr
Spin-orbit integrals         ... /home/rwth0701/scratch/cs681498/orcajob__30556461-dAsq/14232
Treatment of gauge           ... GIAO (approximations 1/2el = 0,0)
Details of the CP(SCF) procedure:
       Solver   = POPLE   
       MaxIter  =    64   
       Tolerance=    1.000e-03
       COSX Grid=     1   
       Op-0     =   0-  4 =>   5- 72
       Op-1     =   0-  3 =>   4- 72
Multiplicity                 ... 2
g-tensor                     ... 1
NMR chemical shifts          ... 0
NMR spin-spin couplings      ... 0
NMR spectrum                 ... 0
Number of nuclei for epr/nmr ... 4
   Nucleus:   1H 
       Hyperfine : Isotope=    1 I=   0.500 P= 533.551
       Quadrupole: Isotope=    2 I=   1.000 Q=   0.003
       Spin-Orbit: Zeff=   1.000
       Nuclear Spin-Spin: Gn=   0.000
       EPRNMR Input: 
       rho(0)=N f(grad)=N a(iso)=Y a(dip)=Y a(orb)=Y sigma(nmr)=N spin-spin(nmr)=all-N,DSO-N,PSO-N,FC-N,SD-N
   Nucleus:   2H 
       Hyperfine : Isotope=    1 I=   0.500 P= 533.551
       Quadrupole: Isotope=    2 I=   1.000 Q=   0.003
       Spin-Orbit: Zeff=   1.000
       Nuclear Spin-Spin: Gn=   0.000
       EPRNMR Input: 
       rho(0)=N f(grad)=N a(iso)=Y a(dip)=Y a(orb)=Y sigma(nmr)=N spin-spin(nmr)=all-N,DSO-N,PSO-N,FC-N,SD-N
   Nucleus:   3H 
       Hyperfine : Isotope=    1 I=   0.500 P= 533.551
       Quadrupole: Isotope=    2 I=   1.000 Q=   0.003
       Spin-Orbit: Zeff=   1.000
       Nuclear Spin-Spin: Gn=   0.000
       EPRNMR Input: 
       rho(0)=N f(grad)=N a(iso)=Y a(dip)=Y a(orb)=Y sigma(nmr)=N spin-spin(nmr)=all-N,DSO-N,PSO-N,FC-N,SD-N
   Nucleus:   0C 
       Hyperfine : Isotope=   13 I=   0.500 P= 134.190
       Quadrupole: Isotope=   13 I=   0.500 Q=   0.000
       Spin-Orbit: Zeff=   3.600
       Nuclear Spin-Spin: Gn=   0.000
       EPRNMR Input: 
       rho(0)=N f(grad)=N a(iso)=Y a(dip)=Y a(orb)=Y sigma(nmr)=N spin-spin(nmr)=all-N,DSO-N,PSO-N,FC-N,SD-N
Forming RHS of the CP-SCF equations         ... 
Calculating right hand sides for GIAO treatment        ... 
  Entering RightHandSide GIAO. ScalHFX=    0.2000 NeedHFX=1
     -> 1-electron GIAO integrals will be done analytically
     -> RIJCOSX used in SCF. Same chosen for GIAO calculation.
     Making grid for GIAO integrations   ...

GRID GIAO
---------

General Integration Accuracy     IntAcc      ... 4.388
Radial Grid Type                 RadialGrid  ... OptM3 with GC (2021)
Angular Grid (max. ang.)         AngularGrid ... 4 (Lebedev-302)
Angular grid pruning method      GridPruning ... 4 (adaptive)
Weight generation scheme         WeightScheme... Becke
Basis function cutoff            BFCut       ... 1.0000e-10
Integration weight cutoff        WCut        ... 1.0000e-14
Angular grids for H and He will be reduced by one unit
Partially contracted basis set               ... off
Rotationally invariant grid construction     ... off

Total number of grid points                  ...    17035
Total number of batches                      ...      268
Average number of points per batch           ...       63
Average number of grid points per atom       ...     4259

  One-electron GIAO integrals (SHARK)     ... done
  Calculating G(B)[P]                     ... (RI-J: SHARK-ok) (COSX-ok) (add-J+K:ok) => dG/dB done
  DFT XC-terms                            ... done
  Extracting occupied and virtual blocks  ... 
  Operator  0  NO=   5 NV=  68 
  Operator  1  NO=   4 NV=  69 
  Transforming and RHS contribution       ... done
  Adding eps_i * S(B)_ai terms            ... done
  Projecting overlap derivatives          ... done
  Building G[dS/dB_ij] (COSX)             ... done
  Transforming to MO basis                ... done
  Summing G[dS/dB_ij] into RHS contribs.  ... done

  GIAO profiling information: 
    Total GIAO time               ...       0.8 sec
       GIAO 1-electron integrals  ...       0.0 sec (  0.4%)
       GIAO G(dS/dB) terms        ...       0.1 sec ( 13.2%)
       GIAO RI-J                  ...       0.1 sec ( 12.3%)
       GIAO COSX                  ...       0.1 sec ( 18.1%)
       GIAO XC-terms              ...       0.3 sec ( 35.6%)

  GIAO right hand side done


------------------------------------------------------------------------------
                           ORCA CP-SCF CALCULATION
------------------------------------------------------------------------------

Input orbitals are from        ... /home/rwth0701/scratch/cs681498/orcajob__30556461-dAsq/14232.gbw
Input Perturbation             ... /home/rwth0701/scratch/cs681498/orcajob__30556461-dAsq/14232.pin.tmp
Wavefunction output            ... /home/rwth0701/scratch/cs681498/orcajob__30556461-dAsq/14232.pout.tmp
Perturbation mode              ... Imaginary perturbation
Solver                         ... POPLE
Max. number of iterations      ... 64
Convergence tolerance          ... 1.000e-03
Integral handling              ... Direct
DFT GridXC                     ... 1
COSX GridX                     ... 1
COSX IntAccX                   ... 3.067
COSX Algorithm                 ... Auto
Number of perturbations        ... 3
Number of operators            ... 2
Orbital ranges used for CP-SCF:
 Operator 0:  Orbitals   0...  4  to   5... 72
 Operator 1:  Orbitals   0...  3  to   4... 72
Variables per perturbation     ... 616
DFT calculation                         ... on
XC functional terms                     ... off
Hybrid DFT                              ... on
   Exchange mixing (SCF)                ...  0.200
   Exchange mixing (CP-SCF)             ...  0.200
   GGA exch. scaling(SCF)               ...  0.720
   GGA exch. scaling (CP-SCF)           ...  0.720
   GGA corr. scaling (SCF)              ...  0.810
   GGA corr. scaling (CP-SCF)           ...  0.810

CP-SCF GRID
-----------

General Integration Accuracy     IntAcc      ... 3.467
Radial Grid Type                 RadialGrid  ... OptM3 with GC (2021)
Angular Grid (max. ang.)         AngularGrid ... 1 (Lebedev-50)
Angular grid pruning method      GridPruning ... 4 (adaptive)
Weight generation scheme         WeightScheme... Becke
Basis function cutoff            BFCut       ... 1.0000e-10
Integration weight cutoff        WCut        ... 1.0000e-14
Angular grids for H and He will be reduced by one unit
Partially contracted basis set               ... off
Rotationally invariant grid construction     ... off

Total number of grid points                  ...     2335
Total number of batches                      ...       38
Average number of points per batch           ...       61
Average number of grid points per atom       ...      584

CP-SCF GRIDX
------------

General Integration Accuracy     IntAcc      ... 3.067
Radial Grid Type                 RadialGrid  ... OptM3 with GC (2021)
Angular Grid (max. ang.)         AngularGrid ... 1 (Lebedev-50)
Angular grid pruning method      GridPruning ... 4 (adaptive)
Weight generation scheme         WeightScheme... Becke
Basis function cutoff            BFCut       ... 1.0000e-10
Integration weight cutoff        WCut        ... 1.0000e-14
Angular grids for H and He will be reduced by one unit
Partially contracted basis set               ... on
Rotationally invariant grid construction     ... off

Total number of grid points                  ...     1070
Total number of batches                      ...       20
Average number of points per batch           ...       53
Average number of grid points per atom       ...      268

Memory available               ... 1014.6 MB
Memory needed per perturbation ...   0.4 MB
Perturbations treated per batch... 3
Number of batches              ... 1
     CP-SCF ITERATION   0:   9.4205e+00 (   0.1 sec   0/  3 done)
     CP-SCF ITERATION   1:   6.8809e-02 (   0.1 sec   0/  3 done)
     CP-SCF ITERATION   2:   3.7332e-03 (   0.1 sec   0/  3 done)
     CP-SCF ITERATION   3:   2.9633e-04 (   0.1 sec   3/  3 done)
                    *** THE CP-SCF HAS CONVERGED ***

Forming final perturbed densities           ... done
Transforming perturbed density to AO basis  ... done

Magnetic field perturbation calculated in  1.220 sec
GIAO: Diamagnetic terms      (analytic)     (SHARK) ... done
GIAO: 1el-Paramagnetic terms (analytic)     (SHARK) ... done

-------------------
ELECTRONIC G-MATRIX
-------------------

 The g-matrix: 
              2.0029017   -0.0000257    0.0000114
             -0.0000273    2.0029044    0.0000800
             -0.0000045    0.0000615    2.0022369

 gel          2.0023193    2.0023193    2.0023193
 gRMC        -0.0001270   -0.0001270   -0.0001270
 gDSO(tot)    0.0000343    0.0000707    0.0000711
 gPSO(tot)    0.0000028    0.0006173    0.0006698
             ----------   ----------   ----------
 g(tot)       2.0022295    2.0028803    2.0029333 iso=  2.0026810
 Delta-g     -0.0000898    0.0005610    0.0006140 iso=  0.0003617
 Orientation: 
  X          -0.0091741    0.7710610   -0.6366952
  Y          -0.1046025    0.6324887    0.7674740
  Z           0.9944718    0.0736408    0.0748524

Notes:  (1) The g-matrix conforms to the "BgS" spin Hamiltonian convention. 
        (2) The principal values are square roots of the eigenvalues of g*gT.
        (3) Orientations are eigenvectors of g*gT written as column vectors.
        (4) Individual contributions are projections of the full matrices onto the eigenvectors of g*gT.
        (5) Tensor is right-handed.


-----------------------------------------
ELECTRIC AND MAGNETIC HYPERFINE STRUCTURE
-----------------------------------------

 -----------------------------------------------------------
 Nucleus   1H : A:ISTP=    1 I=  0.5 P=533.5514 MHz/au**3
                Q:ISTP=    2 I=  1.0 Q=  0.0029 barn     
 -----------------------------------------------------------
 Solving for nuclear perturbation:
Forming RHS of the CP-SCF equations         ... 
Calc. nucleus orbit integrals (SHARK)       ... done

------------------------------------------------------------------------------
                           ORCA CP-SCF CALCULATION
------------------------------------------------------------------------------

Input orbitals are from        ... /home/rwth0701/scratch/cs681498/orcajob__30556461-dAsq/14232.gbw
Input Perturbation             ... /home/rwth0701/scratch/cs681498/orcajob__30556461-dAsq/14232.pin.tmp
Wavefunction output            ... /home/rwth0701/scratch/cs681498/orcajob__30556461-dAsq/14232.pout.tmp
Perturbation mode              ... Imaginary perturbation
Solver                         ... POPLE
Max. number of iterations      ... 64
Convergence tolerance          ... 1.000e-03
Integral handling              ... Direct
DFT GridXC                     ... 1
COSX GridX                     ... 1
COSX IntAccX                   ... 3.067
COSX Algorithm                 ... Auto
Number of perturbations        ... 3
Number of operators            ... 2
Orbital ranges used for CP-SCF:
 Operator 0:  Orbitals   0...  4  to   5... 72
 Operator 1:  Orbitals   0...  3  to   4... 72
Variables per perturbation     ... 616
DFT calculation                         ... on
XC functional terms                     ... off
Hybrid DFT                              ... on
   Exchange mixing (SCF)                ...  0.200
   Exchange mixing (CP-SCF)             ...  0.200
   GGA exch. scaling(SCF)               ...  0.720
   GGA exch. scaling (CP-SCF)           ...  0.720
   GGA corr. scaling (SCF)              ...  0.810
   GGA corr. scaling (CP-SCF)           ...  0.810

CP-SCF GRID
-----------

General Integration Accuracy     IntAcc      ... 3.467
Radial Grid Type                 RadialGrid  ... OptM3 with GC (2021)
Angular Grid (max. ang.)         AngularGrid ... 1 (Lebedev-50)
Angular grid pruning method      GridPruning ... 4 (adaptive)
Weight generation scheme         WeightScheme... Becke
Basis function cutoff            BFCut       ... 1.0000e-10
Integration weight cutoff        WCut        ... 1.0000e-14
Angular grids for H and He will be reduced by one unit
Partially contracted basis set               ... off
Rotationally invariant grid construction     ... off

Total number of grid points                  ...     2335
Total number of batches                      ...       38
Average number of points per batch           ...       61
Average number of grid points per atom       ...      584

CP-SCF GRIDX
------------

General Integration Accuracy     IntAcc      ... 3.067
Radial Grid Type                 RadialGrid  ... OptM3 with GC (2021)
Angular Grid (max. ang.)         AngularGrid ... 1 (Lebedev-50)
Angular grid pruning method      GridPruning ... 4 (adaptive)
Weight generation scheme         WeightScheme... Becke
Basis function cutoff            BFCut       ... 1.0000e-10
Integration weight cutoff        WCut        ... 1.0000e-14
Angular grids for H and He will be reduced by one unit
Partially contracted basis set               ... on
Rotationally invariant grid construction     ... off

Total number of grid points                  ...     1070
Total number of batches                      ...       20
Average number of points per batch           ...       53
Average number of grid points per atom       ...      268

Memory available               ... 968.0 MB
Memory needed per perturbation ...   0.4 MB
Perturbations treated per batch... 3
Number of batches              ... 1
     CP-SCF ITERATION   0:   6.4889e-02 (   0.1 sec   0/  3 done)
     CP-SCF ITERATION   1:   2.7170e-03 (   0.1 sec   1/  3 done)
     CP-SCF ITERATION   2:   2.4318e-04 (   0.1 sec   3/  3 done)
                    *** THE CP-SCF HAS CONVERGED ***

Forming final perturbed densities           ... done
Transforming perturbed density to AO basis  ... done

 Raw HFC matrix (all values in MHz): 
 -----------------------------------
               -80.2113             -36.3922              -4.8340
               -36.3917             -57.1514               0.8133
                -4.8340               0.8134             -67.8003

 A(FC)         -68.4016             -68.4016             -68.4016
 A(SD)          38.2113               0.5712             -38.7824
 A(ORB+DIA)      0.0129              -0.0007               0.0295    A(PC) =   0.0139
 A(ORB)          0.0081               0.0005               0.0282    A(PC) =   0.0123
 A(DIA)          0.0048              -0.0011               0.0013    A(PC) =   0.0017
             ----------           ----------           ----------
 A(Tot)        -30.1774             -67.8311            -107.1545    A(iso)=  -68.3877
 Orientation: 
  X           0.5915255            0.0149996            0.8061468
  Y          -0.8008683            0.1266440            0.5852959
  Z          -0.0933144           -0.9918348            0.0869258

Notes:  (1) The A matrix conforms to the "SAI" spin Hamiltonian convention.
        (2) Tensor is right-handed.

 -----------------------------------------------------------
 Nucleus   2H : A:ISTP=    1 I=  0.5 P=533.5514 MHz/au**3
                Q:ISTP=    2 I=  1.0 Q=  0.0029 barn     
 -----------------------------------------------------------
 Solving for nuclear perturbation:
Forming RHS of the CP-SCF equations         ... 
Calc. nucleus orbit integrals (SHARK)       ... done

------------------------------------------------------------------------------
                           ORCA CP-SCF CALCULATION
------------------------------------------------------------------------------

Input orbitals are from        ... /home/rwth0701/scratch/cs681498/orcajob__30556461-dAsq/14232.gbw
Input Perturbation             ... /home/rwth0701/scratch/cs681498/orcajob__30556461-dAsq/14232.pin.tmp
Wavefunction output            ... /home/rwth0701/scratch/cs681498/orcajob__30556461-dAsq/14232.pout.tmp
Perturbation mode              ... Imaginary perturbation
Solver                         ... POPLE
Max. number of iterations      ... 64
Convergence tolerance          ... 1.000e-03
Integral handling              ... Direct
DFT GridXC                     ... 1
COSX GridX                     ... 1
COSX IntAccX                   ... 3.067
COSX Algorithm                 ... Auto
Number of perturbations        ... 3
Number of operators            ... 2
Orbital ranges used for CP-SCF:
 Operator 0:  Orbitals   0...  4  to   5... 72
 Operator 1:  Orbitals   0...  3  to   4... 72
Variables per perturbation     ... 616
DFT calculation                         ... on
XC functional terms                     ... off
Hybrid DFT                              ... on
   Exchange mixing (SCF)                ...  0.200
   Exchange mixing (CP-SCF)             ...  0.200
   GGA exch. scaling(SCF)               ...  0.720
   GGA exch. scaling (CP-SCF)           ...  0.720
   GGA corr. scaling (SCF)              ...  0.810
   GGA corr. scaling (CP-SCF)           ...  0.810

CP-SCF GRID
-----------

General Integration Accuracy     IntAcc      ... 3.467
Radial Grid Type                 RadialGrid  ... OptM3 with GC (2021)
Angular Grid (max. ang.)         AngularGrid ... 1 (Lebedev-50)
Angular grid pruning method      GridPruning ... 4 (adaptive)
Weight generation scheme         WeightScheme... Becke
Basis function cutoff            BFCut       ... 1.0000e-10
Integration weight cutoff        WCut        ... 1.0000e-14
Angular grids for H and He will be reduced by one unit
Partially contracted basis set               ... off
Rotationally invariant grid construction     ... off

Total number of grid points                  ...     2335
Total number of batches                      ...       38
Average number of points per batch           ...       61
Average number of grid points per atom       ...      584

CP-SCF GRIDX
------------

General Integration Accuracy     IntAcc      ... 3.067
Radial Grid Type                 RadialGrid  ... OptM3 with GC (2021)
Angular Grid (max. ang.)         AngularGrid ... 1 (Lebedev-50)
Angular grid pruning method      GridPruning ... 4 (adaptive)
Weight generation scheme         WeightScheme... Becke
Basis function cutoff            BFCut       ... 1.0000e-10
Integration weight cutoff        WCut        ... 1.0000e-14
Angular grids for H and He will be reduced by one unit
Partially contracted basis set               ... on
Rotationally invariant grid construction     ... off

Total number of grid points                  ...     1070
Total number of batches                      ...       20
Average number of points per batch           ...       53
Average number of grid points per atom       ...      268

Memory available               ... 967.8 MB
Memory needed per perturbation ...   0.4 MB
Perturbations treated per batch... 3
Number of batches              ... 1
     CP-SCF ITERATION   0:   6.7416e-02 (   0.1 sec   0/  3 done)
     CP-SCF ITERATION   1:   2.5506e-03 (   0.1 sec   1/  3 done)
     CP-SCF ITERATION   2:   2.1717e-04 (   0.1 sec   3/  3 done)
                    *** THE CP-SCF HAS CONVERGED ***

Forming final perturbed densities           ... done
Transforming perturbed density to AO basis  ... done

 Raw HFC matrix (all values in MHz): 
 -----------------------------------
               -97.6488              22.6512               1.7712
                22.6519             -32.2071               3.5398
                 1.7712               3.5398             -61.3539

 A(FC)         -63.7515             -63.7515             -63.7515
 A(SD)          39.0233               1.9909             -41.0142
 A(ORB+DIA)      0.0132              -0.0006               0.0320    A(PC) =   0.0148
 A(ORB)          0.0081               0.0005               0.0305    A(PC) =   0.0130
 A(DIA)          0.0051              -0.0012               0.0015    A(PC) =   0.0018
             ----------           ----------           ----------
 A(Tot)        -24.7149             -61.7613            -104.7337    A(iso)=  -63.7366
 Orientation: 
  X           0.2972731           -0.0175861            0.9546305
  Y           0.9488851           -0.1056062           -0.2974295
  Z           0.1060456            0.9942525           -0.0147067

Notes:  (1) The A matrix conforms to the "SAI" spin Hamiltonian convention.
        (2) Tensor is right-handed.

 -----------------------------------------------------------
 Nucleus   3H : A:ISTP=    1 I=  0.5 P=533.5514 MHz/au**3
                Q:ISTP=    2 I=  1.0 Q=  0.0029 barn     
 -----------------------------------------------------------
 Solving for nuclear perturbation:
Forming RHS of the CP-SCF equations         ... 
Calc. nucleus orbit integrals (SHARK)       ... done

------------------------------------------------------------------------------
                           ORCA CP-SCF CALCULATION
------------------------------------------------------------------------------

Input orbitals are from        ... /home/rwth0701/scratch/cs681498/orcajob__30556461-dAsq/14232.gbw
Input Perturbation             ... /home/rwth0701/scratch/cs681498/orcajob__30556461-dAsq/14232.pin.tmp
Wavefunction output            ... /home/rwth0701/scratch/cs681498/orcajob__30556461-dAsq/14232.pout.tmp
Perturbation mode              ... Imaginary perturbation
Solver                         ... POPLE
Max. number of iterations      ... 64
Convergence tolerance          ... 1.000e-03
Integral handling              ... Direct
DFT GridXC                     ... 1
COSX GridX                     ... 1
COSX IntAccX                   ... 3.067
COSX Algorithm                 ... Auto
Number of perturbations        ... 3
Number of operators            ... 2
Orbital ranges used for CP-SCF:
 Operator 0:  Orbitals   0...  4  to   5... 72
 Operator 1:  Orbitals   0...  3  to   4... 72
Variables per perturbation     ... 616
DFT calculation                         ... on
XC functional terms                     ... off
Hybrid DFT                              ... on
   Exchange mixing (SCF)                ...  0.200
   Exchange mixing (CP-SCF)             ...  0.200
   GGA exch. scaling(SCF)               ...  0.720
   GGA exch. scaling (CP-SCF)           ...  0.720
   GGA corr. scaling (SCF)              ...  0.810
   GGA corr. scaling (CP-SCF)           ...  0.810

CP-SCF GRID
-----------

General Integration Accuracy     IntAcc      ... 3.467
Radial Grid Type                 RadialGrid  ... OptM3 with GC (2021)
Angular Grid (max. ang.)         AngularGrid ... 1 (Lebedev-50)
Angular grid pruning method      GridPruning ... 4 (adaptive)
Weight generation scheme         WeightScheme... Becke
Basis function cutoff            BFCut       ... 1.0000e-10
Integration weight cutoff        WCut        ... 1.0000e-14
Angular grids for H and He will be reduced by one unit
Partially contracted basis set               ... off
Rotationally invariant grid construction     ... off

Total number of grid points                  ...     2335
Total number of batches                      ...       38
Average number of points per batch           ...       61
Average number of grid points per atom       ...      584

CP-SCF GRIDX
------------

General Integration Accuracy     IntAcc      ... 3.067
Radial Grid Type                 RadialGrid  ... OptM3 with GC (2021)
Angular Grid (max. ang.)         AngularGrid ... 1 (Lebedev-50)
Angular grid pruning method      GridPruning ... 4 (adaptive)
Weight generation scheme         WeightScheme... Becke
Basis function cutoff            BFCut       ... 1.0000e-10
Integration weight cutoff        WCut        ... 1.0000e-14
Angular grids for H and He will be reduced by one unit
Partially contracted basis set               ... on
Rotationally invariant grid construction     ... off

Total number of grid points                  ...     1070
Total number of batches                      ...       20
Average number of points per batch           ...       53
Average number of grid points per atom       ...      268

Memory available               ... 967.7 MB
Memory needed per perturbation ...   0.4 MB
Perturbations treated per batch... 3
Number of batches              ... 1
     CP-SCF ITERATION   0:   6.2693e-02 (   0.1 sec   0/  3 done)
     CP-SCF ITERATION   1:   2.2541e-03 (   0.1 sec   1/  3 done)
     CP-SCF ITERATION   2:   1.6052e-04 (   0.1 sec   3/  3 done)
                    *** THE CP-SCF HAS CONVERGED ***

Forming final perturbed densities           ... done
Transforming perturbed density to AO basis  ... done

 Raw HFC matrix (all values in MHz): 
 -----------------------------------
               -26.2288               2.3375               1.5754
                 2.3368            -102.3330              -4.5247
                 1.5754              -4.5246             -64.1846

 A(FC)         -64.2634             -64.2634             -64.2634
 A(SD)          38.1470               0.5644             -38.7115
 A(ORB+DIA)      0.0139              -0.0007               0.0308    A(PC) =   0.0147
 A(ORB)          0.0091               0.0004               0.0294    A(PC) =   0.0130
 A(DIA)          0.0048              -0.0011               0.0014    A(PC) =   0.0017
             ----------           ----------           ----------
 A(Tot)        -26.1025             -63.6997            -102.9441    A(iso)=  -64.2488
 Orientation: 
  X           0.9988766            0.0343430           -0.0326502
  Y           0.0283767            0.1183041            0.9925719
  Z           0.0379506           -0.9923833            0.1171966

Notes:  (1) The A matrix conforms to the "SAI" spin Hamiltonian convention.
        (2) Tensor is right-handed.

 -----------------------------------------------------------
 Nucleus   0C : A:ISTP=   13 I=  0.5 P=134.1903 MHz/au**3
                Q:ISTP=   13 I=  0.5 Q=  0.0000 barn     
 -----------------------------------------------------------
 Solving for nuclear perturbation:
Forming RHS of the CP-SCF equations         ... 
Calc. nucleus orbit integrals (SHARK)       ... done

------------------------------------------------------------------------------
                           ORCA CP-SCF CALCULATION
------------------------------------------------------------------------------

Input orbitals are from        ... /home/rwth0701/scratch/cs681498/orcajob__30556461-dAsq/14232.gbw
Input Perturbation             ... /home/rwth0701/scratch/cs681498/orcajob__30556461-dAsq/14232.pin.tmp
Wavefunction output            ... /home/rwth0701/scratch/cs681498/orcajob__30556461-dAsq/14232.pout.tmp
Perturbation mode              ... Imaginary perturbation
Solver                         ... POPLE
Max. number of iterations      ... 64
Convergence tolerance          ... 1.000e-03
Integral handling              ... Direct
DFT GridXC                     ... 1
COSX GridX                     ... 1
COSX IntAccX                   ... 3.067
COSX Algorithm                 ... Auto
Number of perturbations        ... 3
Number of operators            ... 2
Orbital ranges used for CP-SCF:
 Operator 0:  Orbitals   0...  4  to   5... 72
 Operator 1:  Orbitals   0...  3  to   4... 72
Variables per perturbation     ... 616
DFT calculation                         ... on
XC functional terms                     ... off
Hybrid DFT                              ... on
   Exchange mixing (SCF)                ...  0.200
   Exchange mixing (CP-SCF)             ...  0.200
   GGA exch. scaling(SCF)               ...  0.720
   GGA exch. scaling (CP-SCF)           ...  0.720
   GGA corr. scaling (SCF)              ...  0.810
   GGA corr. scaling (CP-SCF)           ...  0.810

CP-SCF GRID
-----------

General Integration Accuracy     IntAcc      ... 3.467
Radial Grid Type                 RadialGrid  ... OptM3 with GC (2021)
Angular Grid (max. ang.)         AngularGrid ... 1 (Lebedev-50)
Angular grid pruning method      GridPruning ... 4 (adaptive)
Weight generation scheme         WeightScheme... Becke
Basis function cutoff            BFCut       ... 1.0000e-10
Integration weight cutoff        WCut        ... 1.0000e-14
Angular grids for H and He will be reduced by one unit
Partially contracted basis set               ... off
Rotationally invariant grid construction     ... off

Total number of grid points                  ...     2335
Total number of batches                      ...       38
Average number of points per batch           ...       61
Average number of grid points per atom       ...      584

CP-SCF GRIDX
------------

General Integration Accuracy     IntAcc      ... 3.067
Radial Grid Type                 RadialGrid  ... OptM3 with GC (2021)
Angular Grid (max. ang.)         AngularGrid ... 1 (Lebedev-50)
Angular grid pruning method      GridPruning ... 4 (adaptive)
Weight generation scheme         WeightScheme... Becke
Basis function cutoff            BFCut       ... 1.0000e-10
Integration weight cutoff        WCut        ... 1.0000e-14
Angular grids for H and He will be reduced by one unit
Partially contracted basis set               ... on
Rotationally invariant grid construction     ... off

Total number of grid points                  ...     1070
Total number of batches                      ...       20
Average number of points per batch           ...       53
Average number of grid points per atom       ...      268

Memory available               ... 967.6 MB
Memory needed per perturbation ...   0.4 MB
Perturbations treated per batch... 3
Number of batches              ... 1
     CP-SCF ITERATION   0:   1.1298e+00 (   0.1 sec   0/  3 done)
     CP-SCF ITERATION   1:   4.2821e-02 (   0.1 sec   0/  3 done)
     CP-SCF ITERATION   2:   3.1727e-03 (   0.1 sec   0/  3 done)
     CP-SCF ITERATION   3:   1.8728e-04 (   0.1 sec   3/  3 done)
                    *** THE CP-SCF HAS CONVERGED ***

Forming final perturbed densities           ... done
Transforming perturbed density to AO basis  ... done

 Raw HFC matrix (all values in MHz): 
 -----------------------------------
                 2.9945               0.8936              -5.1883
                 0.8937               5.7543             -28.1886
                -5.1882             -28.1886             240.5313

 A(FC)          83.2086              83.2086              83.2086
 A(SD)         -80.7585             -80.0283             160.7869
 A(ORB+DIA)     -0.1627              -0.1705              -0.0124    A(PC) =  -0.1152
 A(ORB)         -0.1632              -0.1709              -0.0123    A(PC) =  -0.1155
 A(DIA)          0.0004               0.0004              -0.0001    A(PC) =   0.0002
             ----------           ----------           ----------
 A(Tot)          2.2873               3.0097             243.9831    A(iso)=   83.0934
 Orientation: 
  X           0.4239778           -0.9054099            0.0218105
  Y          -0.9004303           -0.4188141            0.1175588
  Z          -0.0973043           -0.0694812           -0.9928264

Notes:  (1) The A matrix conforms to the "SAI" spin Hamiltonian convention.
        (2) Tensor is right-handed.


--------------------------------------------------------------------------------
----------------------------------------------------------------------------
                           ORCA EULER ANGLE PROGRAM
----------------------------------------------------------------------------

Only g-tensor available        -->  using g-tensor as reference tensor

Reference tensor               ...  g

g-tensor ordering              ...  |g_min> --> |gx>
                                    |g_mid> --> |gy>
                                    |g_max> --> |gz>

A- and EFG-tensor ordering     ...  the axes |Ax>, |Qx>, |Ay>, etc. are assigned
                                    such that the Euler rotation is minimal. You
                                    can find the respective eigenvalues as Ax,
                                    EFGx, Ay, etc. in the tables below.
                                    The relation of |Ax>, |Ay>,  etc. to Amin, Amid, etc.
                                    (as printed in the ORCA EPR/NMR CALCULATION Output)
                                    is obtained in the detailed printout.

Euler rotation around          ...  z - y - z
   First rotation              -->  by alpha around z
   Second rotation             -->  by beta around y'
   Third rotation              -->  by gamma around z''
   Positive / Negative angle   -->  clockwise / counterclockwise rotation

Plot EFG-tensors                    (-)
Plot HFC-tensors                    (-)
Detailed Printout                   (-)

-------------------------------------------------------------------------
          Euler rotation of hyperfine tensor to g-tensor
-------------------------------------------------------------------------

-------------------------------------------------------------------
 Atom  |   Alpha    Beta    Gamma   |   Ax       Ay       Az 
       |          [degrees]         |           [MHz]         
-------------------------------------------------------------------
  1H     -103.1      3.4    104.2     -67.83  -107.15   -30.18
  2H       89.5     33.2    -89.2     -61.76   -24.71  -104.73
  3H      -89.5     37.7     91.2     -63.70   -26.10  -102.94
  0C      -90.5     14.5     91.5     243.98     3.01     2.29
-------------------------------------------------------------------


Maximum memory used throughout the entire EPRNMR-calculation: 67.6 MB

Timings for individual modules:

Sum of individual times         ...       31.333 sec (=   0.522 min)
GTO integral calculation        ...        8.989 sec (=   0.150 min)  28.7 %
Spin-Orbit-Coupling Matrices    ...        3.697 sec (=   0.062 min)  11.8 %
SCF iterations                  ...       10.352 sec (=   0.173 min)  33.0 %
EPR/NMR calculation             ...        8.295 sec (=   0.138 min)  26.5 %
                             ****ORCA TERMINATED NORMALLY****
TOTAL RUN TIME: 0 days 0 hours 0 minutes 36 seconds 184 msec
