Job execution start: Mon Oct 24 19:40:35 CEST 2022
Shared library path: /home/cs681498/orca:/opt/MPI/openmpi-4.1.1/linux/gcc_4.8.5/lib:/opt/MPI/openmpi-4.1.1/linux/gcc_4.8.5/lib/lib32
Slurm Job ID is: 30556183
Slurm Job name is: 4110
ncm0469

                                 *****************
                                 * O   R   C   A *
                                 *****************

                                            #,                                       
                                            ###                                      
                                            ####                                     
                                            #####                                    
                                            ######                                   
                                           ########,                                 
                                     ,,################,,,,,                         
                               ,,#################################,,                 
                          ,,##########################################,,             
                       ,#########################################, ''#####,          
                    ,#############################################,,   '####,        
                  ,##################################################,,,,####,       
                ,###########''''           ''''###############################       
              ,#####''   ,,,,##########,,,,          '''####'''          '####       
            ,##' ,,,,###########################,,,                        '##       
           ' ,,###''''                  '''############,,,                           
         ,,##''                                '''############,,,,        ,,,,,,###''
      ,#''                                            '''#######################'''  
     '                                                          ''''####''''         
             ,#######,   #######,   ,#######,      ##                                
            ,#'     '#,  ##    ##  ,#'     '#,    #''#        ######   ,####,        
            ##       ##  ##   ,#'  ##            #'  '#       #        #'  '#        
            ##       ##  #######   ##           ,######,      #####,   #    #        
            '#,     ,#'  ##    ##  '#,     ,#' ,#      #,         ##   #,  ,#        
             '#######'   ##     ##  '#######'  #'      '#     #####' # '####'        



                  #######################################################
                  #                        -***-                        #
                  #          Department of theory and spectroscopy      #
                  #    Directorship and core code : Frank Neese         #
                  #        Max Planck Institute fuer Kohlenforschung    #
                  #                Kaiser Wilhelm Platz 1               #
                  #                 D-45470 Muelheim/Ruhr               #
                  #                      Germany                        #
                  #                                                     #
                  #                  All rights reserved                #
                  #                        -***-                        #
                  #######################################################


                         Program Version 5.0.3 -  RELEASE  -


 With contributions from (in alphabetic order):
   Daniel Aravena         : Magnetic Suceptibility
   Michael Atanasov       : Ab Initio Ligand Field Theory (pilot matlab implementation)
   Alexander A. Auer      : GIAO ZORA, VPT2 properties, NMR spectrum
   Ute Becker             : Parallelization
   Giovanni Bistoni       : ED, misc. LED, open-shell LED, HFLD
   Martin Brehm           : Molecular dynamics
   Dmytro Bykov           : SCF Hessian
   Vijay G. Chilkuri      : MRCI spin determinant printing, contributions to CSF-ICE
   Dipayan Datta          : RHF DLPNO-CCSD density
   Achintya Kumar Dutta   : EOM-CC, STEOM-CC
   Dmitry Ganyushin       : Spin-Orbit,Spin-Spin,Magnetic field MRCI
   Miquel Garcia          : C-PCM and meta-GGA Hessian, CC/C-PCM, Gaussian charge scheme
   Yang Guo               : DLPNO-NEVPT2, F12-NEVPT2, CIM, IAO-localization
   Andreas Hansen         : Spin unrestricted coupled pair/coupled cluster methods
   Benjamin Helmich-Paris : MC-RPA, TRAH-SCF, COSX integrals
   Lee Huntington         : MR-EOM, pCC
   Robert Izsak           : Overlap fitted RIJCOSX, COSX-SCS-MP3, EOM
   Marcus Kettner         : VPT2
   Christian Kollmar      : KDIIS, OOCD, Brueckner-CCSD(T), CCSD density, CASPT2, CASPT2-K
   Simone Kossmann        : Meta GGA functionals, TD-DFT gradient, OOMP2, MP2 Hessian
   Martin Krupicka        : Initial AUTO-CI
   Lucas Lang             : DCDCAS
   Marvin Lechner         : AUTO-CI (C++ implementation), FIC-MRCC
   Dagmar Lenk            : GEPOL surface, SMD
   Dimitrios Liakos       : Extrapolation schemes; Compound Job, initial MDCI parallelization
   Dimitrios Manganas     : Further ROCIS development; embedding schemes
   Dimitrios Pantazis     : SARC Basis sets
   Anastasios Papadopoulos: AUTO-CI, single reference methods and gradients
   Taras Petrenko         : DFT Hessian,TD-DFT gradient, ASA, ECA, R-Raman, ABS, FL, XAS/XES, NRVS
   Peter Pinski           : DLPNO-MP2, DLPNO-MP2 Gradient
   Christoph Reimann      : Effective Core Potentials
   Marius Retegan         : Local ZFS, SOC
   Christoph Riplinger    : Optimizer, TS searches, QM/MM, DLPNO-CCSD(T), (RO)-DLPNO pert. Triples
   Tobias Risthaus        : Range-separated hybrids, TD-DFT gradient, RPA, STAB
   Michael Roemelt        : Original ROCIS implementation
   Masaaki Saitow         : Open-shell DLPNO-CCSD energy and density
   Barbara Sandhoefer     : DKH picture change effects
   Avijit Sen             : IP-ROCIS
   Kantharuban Sivalingam : CASSCF convergence, NEVPT2, FIC-MRCI
   Bernardo de Souza      : ESD, SOC TD-DFT
   Georgi Stoychev        : AutoAux, RI-MP2 NMR, DLPNO-MP2 response
   Willem Van den Heuvel  : Paramagnetic NMR
   Boris Wezisla          : Elementary symmetry handling
   Frank Wennmohs         : Technical directorship


 We gratefully acknowledge several colleagues who have allowed us to
 interface, adapt or use parts of their codes:
   Stefan Grimme, W. Hujo, H. Kruse, P. Pracht,  : VdW corrections, initial TS optimization,
                  C. Bannwarth, S. Ehlert          DFT functionals, gCP, sTDA/sTD-DF
   Ed Valeev, F. Pavosevic, A. Kumar             : LibInt (2-el integral package), F12 methods
   Garnet Chan, S. Sharma, J. Yang, R. Olivares  : DMRG
   Ulf Ekstrom                                   : XCFun DFT Library
   Mihaly Kallay                                 : mrcc  (arbitrary order and MRCC methods)
   Jiri Pittner, Ondrej Demel                    : Mk-CCSD
   Frank Weinhold                                : gennbo (NPA and NBO analysis)
   Christopher J. Cramer and Donald G. Truhlar   : smd solvation model
   Lars Goerigk                                  : TD-DFT with DH, B97 family of functionals
   V. Asgeirsson, H. Jonsson                     : NEB implementation
   FAccTs GmbH                                   : IRC, NEB, NEB-TS, DLPNO-Multilevel, CI-OPT
                                                   MM, QMMM, 2- and 3-layer-ONIOM, Crystal-QMMM,
                                                   LR-CPCM, SF, NACMEs, symmetry and pop. for TD-DFT,
                                                   nearIR, NL-DFT gradient (VV10), updates on ESD,
                                                   ML-optimized integration grids
   S Lehtola, MJT Oliveira, MAL Marques          : LibXC Library
   Liviu Ungur et al                             : ANISO software


 Your calculation uses the libint2 library for the computation of 2-el integrals
 For citations please refer to: http://libint.valeyev.net

 Your ORCA version has been built with support for libXC version: 5.1.0
 For citations please refer to: https://tddft.org/programs/libxc/

 This ORCA versions uses:
   CBLAS   interface :  Fast vector & matrix operations
   LAPACKE interface :  Fast linear algebra routines
   SCALAPACK package :  Parallel linear algebra routines
   Shared memory     :  Shared parallel matrices
   BLAS/LAPACK       :  OpenBLAS 0.3.15  USE64BITINT DYNAMIC_ARCH NO_AFFINITY SkylakeX SINGLE_THREADED
        Core in use  :  SkylakeX
   Copyright (c) 2011-2014, The OpenBLAS Project


================================================================================

----- Orbital basis set information -----
Your calculation utilizes the basis: EPR-III
   V. Barone, in Recent Advances in Density Functional Methods, Part 1 (ed. D. P. Chong), World Scientific, Singapore, 1995, p. 287.
   N. Rega, M. Cossi and V. Barone, J. Chem. Phys. 105, 11060 (1996).

----- AuxJ basis set information -----
Your calculation utilizes the AutoAux generation procedure.
  G. L. Stoychev, A. A. Auer, F. Neese, J. Chem. Theory Comput. 13, 554 (2017)

----- AuxC basis set information -----
Your calculation utilizes the AutoAux generation procedure.
  G. L. Stoychev, A. A. Auer, F. Neese, J. Chem. Theory Comput. 13, 554 (2017)

----- AuxJK basis set information -----
Your calculation utilizes the AutoAux generation procedure.
  G. L. Stoychev, A. A. Auer, F. Neese, J. Chem. Theory Comput. 13, 554 (2017)

================================================================================
                                        WARNINGS
                       Please study these warnings very carefully!
================================================================================


WARNING: your system is open-shell and RHF/RKS was chosen
  ===> : WILL SWITCH to UHF/UKS


INFO   : the flag for use of the SHARK integral package has been found!

================================================================================
                                       INPUT FILE
================================================================================
NAME = /home/rwth0701/scratch/cs681498/orcajob__30556183-HEIX/4110.inp
|  1> !B3LYP EPR-III Autoaux
|  2> !PAL4
|  3> 
|  4> * xyz 0 2
|  5>  C     -3.1710326162    -18.5337231526    -11.2065175928
|  6>  H     -2.6279761818    -17.6897784040    -10.8560563168
|  7>  H     -3.9841685407    -18.2566567972    -11.9657937496
|  8>  H     -2.9946164923    -19.5767327711    -10.8329515884
|  9> *
| 10> 
| 11> %EPRNMR
| 12>         GTENSOR   TRUE
| 13>         NUCLEI    = ALL H {AISO, ADIP, AORB}
| 14>         NUCLEI    = ALL C {AISO, ADIP, AORB}
| 15> END
| 16> 
| 17> 
| 18>                          ****END OF INPUT****
================================================================================

                       ****************************
                       * Single Point Calculation *
                       ****************************

---------------------------------
CARTESIAN COORDINATES (ANGSTROEM)
---------------------------------
  C     -3.171033  -18.533723  -11.206518
  H     -2.627976  -17.689778  -10.856056
  H     -3.984169  -18.256657  -11.965794
  H     -2.994616  -19.576733  -10.832952

----------------------------
CARTESIAN COORDINATES (A.U.)
----------------------------
  NO LB      ZA    FRAG     MASS         X           Y           Z
   0 C     6.0000    0    12.011   -5.992383  -35.023661  -21.177249
   1 H     1.0000    0     1.008   -4.966155  -33.428837  -20.514973
   2 H     1.0000    0     1.008   -7.528987  -34.500081  -22.612073
   3 H     1.0000    0     1.008   -5.659005  -36.994664  -20.471312

--------------------------------
INTERNAL COORDINATES (ANGSTROEM)
--------------------------------
 C      0   0   0     0.000000000000     0.00000000     0.00000000
 H      1   0   0     1.063003356349     0.00000000     0.00000000
 H      1   2   0     1.146497308890   112.88008096     0.00000000
 H      1   2   3     1.121848150464   123.23063768   182.69562866

---------------------------
INTERNAL COORDINATES (A.U.)
---------------------------
 C      0   0   0     0.000000000000     0.00000000     0.00000000
 H      1   0   0     2.008785222938     0.00000000     0.00000000
 H      1   2   0     2.166565927080   112.88008096     0.00000000
 H      1   2   3     2.119985768222   123.23063768   182.69562866

---------------------
BASIS SET INFORMATION
---------------------
There are 2 groups of distinct atoms

 Group   1 Type C   : 12s8p2d1f contracted to 8s5p2d1f pattern {51111111/41111/11/1}
 Group   2 Type H   : 7s2p contracted to 5s2p pattern {31111/11}

Atom   0C    basis set group =>   1
Atom   1H    basis set group =>   2
Atom   2H    basis set group =>   2
Atom   3H    basis set group =>   2
---------------------------------
AUXILIARY/J BASIS SET INFORMATION
---------------------------------
There are 2 groups of distinct atoms

 Group   1 Type C   : 20s17p16d8f3g contracted to 20s17p16d8f3g pattern {11111111111111111111/11111111111111111/1111111111111111/11111111/111}
 Group   2 Type H   : 17s7p3d contracted to 17s7p3d pattern {11111111111111111/1111111/111}

Atom   0C    basis set group =>   1
Atom   1H    basis set group =>   2
Atom   2H    basis set group =>   2
Atom   3H    basis set group =>   2
---------------------------------
AUXILIARY/C BASIS SET INFORMATION
---------------------------------
There are 2 groups of distinct atoms

 Group   1 Type C   : 20s17p16d8f3g contracted to 20s17p16d8f3g pattern {11111111111111111111/11111111111111111/1111111111111111/11111111/111}
 Group   2 Type H   : 17s7p3d contracted to 17s7p3d pattern {11111111111111111/1111111/111}

Atom   0C    basis set group =>   1
Atom   1H    basis set group =>   2
Atom   2H    basis set group =>   2
Atom   3H    basis set group =>   2
----------------------------------
AUXILIARY/JK BASIS SET INFORMATION
----------------------------------
There are 2 groups of distinct atoms

 Group   1 Type C   : 20s17p16d8f3g contracted to 20s17p16d8f3g pattern {11111111111111111111/11111111111111111/1111111111111111/11111111/111}
 Group   2 Type H   : 17s7p3d contracted to 17s7p3d pattern {11111111111111111/1111111/111}

Atom   0C    basis set group =>   1
Atom   1H    basis set group =>   2
Atom   2H    basis set group =>   2
Atom   3H    basis set group =>   2


           ************************************************************
           *        Program running with 4 parallel MPI-processes     *
           *              working on a common directory               *
           ************************************************************
------------------------------------------------------------------------------
                           ORCA GTO INTEGRAL CALCULATION
                           -- RI-GTO INTEGRALS CHOSEN --
------------------------------------------------------------------------------
------------------------------------------------------------------------------
                   ___                                                        
                  /   \      - P O W E R E D   B Y -                         
                 /     \                                                     
                 |  |  |   _    _      __       _____    __    __             
                 |  |  |  | |  | |    /  \     |  _  \  |  |  /  |          
                  \  \/   | |  | |   /    \    | | | |  |  | /  /          
                 / \  \   | |__| |  /  /\  \   | |_| |  |  |/  /          
                |  |  |   |  __  | /  /__\  \  |    /   |      \           
                |  |  |   | |  | | |   __   |  |    \   |  |\   \          
                \     /   | |  | | |  |  |  |  | |\  \  |  | \   \       
                 \___/    |_|  |_| |__|  |__|  |_| \__\ |__|  \__/        
                                                                              
                      - O R C A' S   B I G   F R I E N D -                    
                                      &                                       
                       - I N T E G R A L  F E E D E R -                       
                                                                              
 v1 FN, 2020, v2 2021                                                         
------------------------------------------------------------------------------


Reading SHARK input file /home/rwth0701/scratch/cs681498/orcajob__30556183-HEIX/4110.SHARKINP.tmp ... ok
----------------------
SHARK INTEGRAL PACKAGE
----------------------

Number of atoms                             ...      4
Number of basis functions                   ...     73
Number of shells                            ...     37
Maximum angular momentum                    ...      3
Integral batch strategy                     ... SHARK/LIBINT Hybrid
RI-J (if used) integral strategy            ... SPLIT-RIJ (Revised 2003 algorithm where possible)
Printlevel                                  ...      1
Contraction scheme used                     ... SEGMENTED contraction
Coulomb Range Separation                    ... NOT USED
Exchange Range Separation                   ... NOT USED
Finite Nucleus Model                        ... NOT USED
Auxiliary Coulomb fitting basis             ... AVAILABLE
   # of basis functions in Aux-J            ...    393
   # of shells in Aux-J                     ...    145
   Maximum angular momentum in Aux-J        ...      4
Auxiliary J/K fitting basis                 ... AVAILABLE
   # of basis functions in Aux-JK           ...    393
   # of shells in Aux-JK                    ...    145
   Maximum angular momentum in Aux-JK       ...      4
Auxiliary Correlation fitting basis         ... AVAILABLE
   # of basis functions in Aux-C            ...    393
   # of shells in Aux-C                     ...    145
   Maximum angular momentum in Aux-C        ...      4
Auxiliary 'external' fitting basis          ... NOT available
Integral threshold                          ...     1.000000e-10
Primitive cut-off                           ...     1.000000e-11
Primitive pair pre-selection threshold      ...     1.000000e-11

Calculating pre-screening integrals         ... done (  0.0 sec) Dimension = 37
Organizing shell pair data                  ... done (  0.0 sec)
Shell pair information
Total number of shell pairs                 ...       703
Shell pairs after pre-screening             ...       688
Total number of primitive shell pairs       ...      1300
Primitive shell pairs kept                  ...      1183
          la=0 lb=0:    261 shell pairs
          la=1 lb=0:    253 shell pairs
          la=1 lb=1:     66 shell pairs
          la=2 lb=0:     46 shell pairs
          la=2 lb=1:     22 shell pairs
          la=2 lb=2:      3 shell pairs
          la=3 lb=0:     23 shell pairs
          la=3 lb=1:     11 shell pairs
          la=3 lb=2:      2 shell pairs
          la=3 lb=3:      1 shell pairs

Calculating one electron integrals          ... done (  0.0 sec)
Calculating RI/J V-Matrix + Cholesky decomp.... done (  0.1 sec)
Calculating RI/JK V-Matrix + Cholesky decomp... done (  0.1 sec)
Calculating RI/C V-Matrix + Cholesky decomp.... done (  0.1 sec)
Calculating Nuclear repulsion               ... done (  0.0 sec) ENN=      9.413456634992 Eh

SHARK setup successfully completed in   0.4 seconds

Maximum memory used throughout the entire GTOINT-calculation: 13.7 MB


           ************************************************************
           *        Program running with 4 parallel MPI-processes     *
           *              working on a common directory               *
           ************************************************************
-------------------------------------------------------------------------------
                                 ORCA SCF
-------------------------------------------------------------------------------

------------
SCF SETTINGS
------------
Hamiltonian:
 Density Functional     Method          .... DFT(GTOs)
 Exchange Functional    Exchange        .... B88
   X-Alpha parameter    XAlpha          ....  0.666667
   Becke's b parameter  XBeta           ....  0.004200
 Correlation Functional Correlation     .... LYP
 LDA part of GGA corr.  LDAOpt          .... VWN-5
 Gradients option       PostSCFGGA      .... off
 Hybrid DFT is turned on
   Fraction HF Exchange ScalHFX         ....  0.200000
   Scaling of DF-GGA-X  ScalDFX         ....  0.720000
   Scaling of DF-GGA-C  ScalDFC         ....  0.810000
   Scaling of DF-LDA-C  ScalLDAC        ....  1.000000
   Perturbative correction              ....  0.000000
   Density functional embedding theory  .... OFF
   NL short-range parameter             ....  4.800000
 RI-approximation to the Coulomb term is turned on
   Number of AuxJ basis functions       .... 393
   RIJ-COSX (HFX calculated with COS-X)).... on


General Settings:
 Integral files         IntName         .... /home/rwth0701/scratch/cs681498/orcajob__30556183-HEIX/4110
 Hartree-Fock type      HFTyp           .... UHF
 Total Charge           Charge          ....    0
 Multiplicity           Mult            ....    2
 Number of Electrons    NEL             ....    9
 Basis Dimension        Dim             ....   73
 Nuclear Repulsion      ENuc            ....      9.4134566350 Eh

Convergence Acceleration:
 DIIS                   CNVDIIS         .... on
   Start iteration      DIISMaxIt       ....    12
   Startup error        DIISStart       ....  0.200000
   # of expansion vecs  DIISMaxEq       ....     5
   Bias factor          DIISBfac        ....   1.050
   Max. coefficient     DIISMaxC        ....  10.000
 Trust-Rad. Augm. Hess. CNVTRAH         .... auto
   Auto Start mean grad. ratio tolernc. ....  1.125000
   Auto Start start iteration           ....    20
   Auto Start num. interpolation iter.  ....    10
   Max. Number of Micro iterations      ....    16
   Max. Number of Macro iterations      .... Maxiter - #DIIS iter
   Number of Davidson start vectors     ....     2
   Converg. threshold I  (grad. norm)   ....   5.000e-05
   Converg. threshold II (energy diff.) ....   1.000e-06
   Grad. Scal. Fac. for Micro threshold ....   0.100
   Minimum threshold for Micro iter.    ....   0.010
   NR start threshold (gradient norm)   ....   0.001
   Initial trust radius                 ....   0.400
   Minimum AH scaling param. (alpha)    ....   1.000
   Maximum AH scaling param. (alpha)    .... 1000.000
   Orbital update algorithm             .... Taylor
   White noise on init. David. guess    .... on
   Maximum white noise                  ....   0.010
   Quad. conv. algorithm                .... NR
 SOSCF                  CNVSOSCF        .... off
 Level Shifting         CNVShift        .... on
   Level shift para.    LevelShift      ....    0.2500
   Turn off err/grad.   ShiftErr        ....    0.0010
 Zerner damping         CNVZerner       .... off
 Static damping         CNVDamp         .... on
   Fraction old density DampFac         ....    0.7000
   Max. Damping (<1)    DampMax         ....    0.9800
   Min. Damping (>=0)   DampMin         ....    0.0000
   Turn off err/grad.   DampErr         ....    0.1000
 Fernandez-Rico         CNVRico         .... off

SCF Procedure:
 Maximum # iterations   MaxIter         ....   125
 SCF integral mode      SCFMode         .... Direct
   Integral package                     .... SHARK and LIBINT hybrid scheme
 Reset frequency        DirectResetFreq ....    20
 Integral Threshold     Thresh          ....  1.000e-10 Eh
 Primitive CutOff       TCut            ....  1.000e-11 Eh

Convergence Tolerance:
 Convergence Check Mode ConvCheckMode   .... Total+1el-Energy
 Convergence forced     ConvForced      .... 0
 Energy Change          TolE            ....  1.000e-06 Eh
 1-El. energy change                    ....  1.000e-03 Eh
 DIIS Error             TolErr          ....  1.000e-06


Diagonalization of the overlap matrix:
Smallest eigenvalue                        ... 1.727e-03
Time for diagonalization                   ...    0.001 sec
Threshold for overlap eigenvalues          ... 1.000e-08
Number of eigenvalues below threshold      ... 0
Time for construction of square roots      ...    0.013 sec
Total time needed                          ...    0.015 sec

Time for model grid setup =    0.055 sec

------------------------------
INITIAL GUESS: MODEL POTENTIAL
------------------------------
Loading Hartree-Fock densities                     ... done
Calculating cut-offs                               ... done
Initializing the effective Hamiltonian             ... done
Setting up the integral package (SHARK)            ... done
Starting the Coulomb interaction                   ... done (   0.0 sec)
Reading the grid                                   ... done
Mapping shells                                     ... done
Starting the XC term evaluation                    ... done (   0.0 sec)
  promolecular density results
     # of electrons  =      8.998733258
     EX              =     -5.957212463
     EC              =     -0.259290426
     EX+EC           =     -6.216502888
Transforming the Hamiltonian                       ... done (   0.0 sec)
Diagonalizing the Hamiltonian                      ... done (   0.0 sec)
Back transforming the eigenvectors                 ... done (   0.0 sec)
Now organizing SCF variables                       ... done
                      ------------------
                      INITIAL GUESS DONE (   0.1 sec)
                      ------------------
-------------------
DFT GRID GENERATION
-------------------

General Integration Accuracy     IntAcc      ... 4.388
Radial Grid Type                 RadialGrid  ... OptM3 with GC (2021)
Angular Grid (max. ang.)         AngularGrid ... 4 (Lebedev-302)
Angular grid pruning method      GridPruning ... 4 (adaptive)
Weight generation scheme         WeightScheme... Becke
Basis function cutoff            BFCut       ... 1.0000e-10
Integration weight cutoff        WCut        ... 1.0000e-14
Angular grids for H and He will be reduced by one unit
Partially contracted basis set               ... off
Rotationally invariant grid construction     ... off

Total number of grid points                  ...    17067
Total number of batches                      ...      268
Average number of points per batch           ...       63
Average number of grid points per atom       ...     4267
Time for grid setup =    0.124 sec

--------------------
COSX GRID GENERATION
--------------------

GRIDX 1
-------
General Integration Accuracy     IntAcc      ... 3.816
Radial Grid Type                 RadialGrid  ... OptM3 with GC (2021)
Angular Grid (max. ang.)         AngularGrid ... 1 (Lebedev-50)
Angular grid pruning method      GridPruning ... 4 (adaptive)
Weight generation scheme         WeightScheme... Becke
Basis function cutoff            BFCut       ... 1.0000e-10
Integration weight cutoff        WCut        ... 1.0000e-14
Angular grids for H and He will be reduced by one unit
Partially contracted basis set               ... on
Rotationally invariant grid construction     ... off

Total number of grid points                  ...     2148
Total number of batches                      ...       35
Average number of points per batch           ...       61
Average number of grid points per atom       ...      537
UseSFitting                                  ... on

GRIDX 2
-------
General Integration Accuracy     IntAcc      ... 4.020
Radial Grid Type                 RadialGrid  ... OptM3 with GC (2021)
Angular Grid (max. ang.)         AngularGrid ... 2 (Lebedev-110)
Angular grid pruning method      GridPruning ... 4 (adaptive)
Weight generation scheme         WeightScheme... Becke
Basis function cutoff            BFCut       ... 1.0000e-10
Integration weight cutoff        WCut        ... 1.0000e-14
Angular grids for H and He will be reduced by one unit
Partially contracted basis set               ... on
Rotationally invariant grid construction     ... off

Total number of grid points                  ...     5057
Total number of batches                      ...       82
Average number of points per batch           ...       61
Average number of grid points per atom       ...     1264
UseSFitting                                  ... on

GRIDX 3
-------
General Integration Accuracy     IntAcc      ... 4.338
Radial Grid Type                 RadialGrid  ... OptM3 with GC (2021)
Angular Grid (max. ang.)         AngularGrid ... 3 (Lebedev-194)
Angular grid pruning method      GridPruning ... 4 (adaptive)
Weight generation scheme         WeightScheme... Becke
Basis function cutoff            BFCut       ... 1.0000e-10
Integration weight cutoff        WCut        ... 1.0000e-14
Angular grids for H and He will be reduced by one unit
Partially contracted basis set               ... on
Rotationally invariant grid construction     ... off

Total number of grid points                  ...    11760
Total number of batches                      ...      186
Average number of points per batch           ...       63
Average number of grid points per atom       ...     2940
UseSFitting                                  ... on

Time for X-Grid setup             =    0.268 sec

--------------
SCF ITERATIONS
--------------
ITER       Energy         Delta-E        Max-DP      RMS-DP      [F,P]     Damp
               ***  Starting incremental Fock matrix formation  ***
  0    -39.7859231040   0.000000000000 0.01436695  0.00047517  0.0831411 0.7000
  1    -39.8028851611  -0.016962057151 0.00908427  0.00035579  0.0435535 0.7000
                               ***Turning on DIIS***
  2    -39.8103304158  -0.007445254700 0.01681640  0.00062139  0.0174381 0.0000
  3    -39.8205161120  -0.010185696172 0.00649336  0.00026863  0.0248213 0.0000
  4    -39.8236992361  -0.003183124078 0.00258241  0.00007478  0.0046492 0.0000
  5    -39.8238282128  -0.000128976675 0.00090216  0.00003237  0.0013926 0.0000
  6    -39.8238462442  -0.000018031394 0.00055260  0.00002588  0.0005346 0.0000
               *** Restarting incremental Fock matrix formation ***
                                   *** Resetting DIIS ***
  7    -39.8238485690  -0.000002324857 0.00008785  0.00000295  0.0000823 0.0000
                 **** Energy Check signals convergence ****

               *****************************************************
               *                     SUCCESS                       *
               *           SCF CONVERGED AFTER   8 CYCLES          *
               *****************************************************

Old exchange energy                            =     -1.234475183 Eh
New exchange energy                            =     -1.234474308 Eh
Exchange energy change after final integration =      0.000000874 Eh
Total energy after final integration           =    -39.823847779 Eh
Final COS-X integration done in                =     0.185 sec

----------------
TOTAL SCF ENERGY
----------------

Total Energy       :          -39.82384778 Eh           -1083.66199 eV

Components:
Nuclear Repulsion  :            9.41345663 Eh             256.15318 eV
Electronic Energy  :          -49.23730441 Eh           -1339.81517 eV
One Electron Energy:          -71.16503627 Eh           -1936.49909 eV
Two Electron Energy:           21.92773186 Eh             596.68392 eV
Max COSX asymmetry :            0.00000005 Eh               0.00000 eV

Virial components:
Potential Energy   :          -79.33101980 Eh           -2158.70680 eV
Kinetic Energy     :           39.50717202 Eh            1075.04480 eV
Virial Ratio       :            2.00801565


DFT components:
N(Alpha)           :        4.999999754173 electrons
N(Beta)            :        4.000000522790 electrons
N(Total)           :        9.000000276963 electrons
E(X)               :       -4.888417538044 Eh       
E(C)               :       -0.308197298041 Eh       
E(XC)              :       -5.196614836085 Eh       
DFET-embed. en.    :        0.000000000000 Eh       

---------------
SCF CONVERGENCE
---------------

  Last Energy change         ...   -8.4173e-08  Tolerance :   1.0000e-06
  Last MAX-Density change    ...    0.0000e+00  Tolerance :   1.0000e-05
  Last RMS-Density change    ...    0.0000e+00  Tolerance :   1.0000e-06
  Last DIIS Error            ...    5.3738e-05  Tolerance :   1.0000e-06

             **** THE GBW FILE WAS UPDATED (/home/rwth0701/scratch/cs681498/orcajob__30556183-HEIX/4110.gbw) ****
             **** DENSITY /home/rwth0701/scratch/cs681498/orcajob__30556183-HEIX/4110.scfp WAS UPDATED ****
             **** ENERGY FILE WAS UPDATED (/home/rwth0701/scratch/cs681498/orcajob__30556183-HEIX/4110.en.tmp) ****
----------------------
UHF SPIN CONTAMINATION
----------------------

Warning: in a DFT calculation there is little theoretical justification to 
         calculate <S**2> as in Hartree-Fock theory. We will do it anyways
         but you should keep in mind that the values have only limited relevance

Expectation value of <S**2>     :     0.753975
Ideal value S*(S+1) for S=0.5   :     0.750000
Deviation                       :     0.003975

             **** THE GBW FILE WAS UPDATED (/home/rwth0701/scratch/cs681498/orcajob__30556183-HEIX/4110.gbw) ****
             **** DENSITY /home/rwth0701/scratch/cs681498/orcajob__30556183-HEIX/4110.scfp WAS UPDATED ****
----------------
ORBITAL ENERGIES
----------------
                 SPIN UP ORBITALS
  NO   OCC          E(Eh)            E(eV) 
   0   1.0000     -10.193089      -277.3681 
   1   1.0000      -0.680348       -18.5132 
   2   1.0000      -0.426244       -11.5987 
   3   1.0000      -0.405944       -11.0463 
   4   1.0000      -0.234929        -6.3927 
   5   0.0000      -0.000306        -0.0083 
   6   0.0000       0.035485         0.9656 
   7   0.0000       0.037752         1.0273 
   8   0.0000       0.047332         1.2880 
   9   0.0000       0.081420         2.2156 
  10   0.0000       0.086976         2.3667 
  11   0.0000       0.096570         2.6278 
  12   0.0000       0.220709         6.0058 
  13   0.0000       0.226024         6.1504 
  14   0.0000       0.245616         6.6836 
  15   0.0000       0.275656         7.5010 
  16   0.0000       0.289259         7.8711 
  17   0.0000       0.303990         8.2720 
  18   0.0000       0.336367         9.1530 
  19   0.0000       0.546026        14.8581 
  20   0.0000       0.563026        15.3207 
  21   0.0000       0.740331        20.1454 
  22   0.0000       0.748630        20.3713 
  23   0.0000       0.772528        21.0216 
  24   0.0000       0.813912        22.1477 
  25   0.0000       0.862914        23.4811 
  26   0.0000       0.894404        24.3380 
  27   0.0000       0.938128        25.5278 
  28   0.0000       0.948214        25.8022 
  29   0.0000       1.058811        28.8117 
  30   0.0000       1.061502        28.8849 
  31   0.0000       1.105889        30.0928 
  32   0.0000       1.158144        31.5147 
  33   0.0000       1.163149        31.6509 
  34   0.0000       1.438857        39.1533 
  35   0.0000       1.458528        39.6886 
  36   0.0000       1.479438        40.2576 
  37   0.0000       1.687094        45.9082 
  38   0.0000       1.732599        47.1464 
  39   0.0000       1.734631        47.2017 
  40   0.0000       2.721795        74.0638 
  41   0.0000       2.739561        74.5472 
  42   0.0000       2.879702        78.3607 
  43   0.0000       2.892070        78.6972 
  44   0.0000       2.922243        79.5183 
  45   0.0000       2.971365        80.8549 
  46   0.0000       2.982685        81.1630 
  47   0.0000       3.146927        85.6322 
  48   0.0000       3.168722        86.2253 
  49   0.0000       3.251595        88.4804 
  50   0.0000       3.266025        88.8731 
  51   0.0000       3.696010       100.5735 
  52   0.0000       3.718499       101.1855 
  53   0.0000       3.735895       101.6589 
  54   0.0000       3.884245       105.6957 
  55   0.0000       3.910631       106.4137 
  56   0.0000       4.004518       108.9685 
  57   0.0000       4.077278       110.9484 
  58   0.0000       4.106267       111.7372 
  59   0.0000       4.122417       112.1767 
  60   0.0000       4.558521       124.0437 
  61   0.0000       4.998650       136.0202 
  62   0.0000       5.229376       142.2985 
  63   0.0000       5.370562       146.1404 
  64   0.0000       5.499369       149.6454 
  65   0.0000       6.002581       163.3385 
  66   0.0000       6.099921       165.9873 
  67   0.0000       7.654994       208.3030 
  68   0.0000      29.023050       789.7573 
  69   0.0000      37.045486      1008.0589 
  70   0.0000      37.189082      1011.9664 
  71   0.0000      37.219760      1012.8012 
  72   0.0000     133.470319      3631.9120 

                 SPIN DOWN ORBITALS
  NO   OCC          E(Eh)            E(eV) 
   0   1.0000     -10.178472      -276.9703 
   1   1.0000      -0.640592       -17.4314 
   2   1.0000      -0.417089       -11.3496 
   3   1.0000      -0.396726       -10.7955 
   4   0.0000      -0.077069        -2.0972 
   5   0.0000       0.003179         0.0865 
   6   0.0000       0.035204         0.9580 
   7   0.0000       0.037417         1.0182 
   8   0.0000       0.060672         1.6510 
   9   0.0000       0.084962         2.3119 
  10   0.0000       0.088569         2.4101 
  11   0.0000       0.099156         2.6982 
  12   0.0000       0.221662         6.0317 
  13   0.0000       0.227402         6.1879 
  14   0.0000       0.263884         7.1806 
  15   0.0000       0.294795         8.0218 
  16   0.0000       0.310098         8.4382 
  17   0.0000       0.311013         8.4631 
  18   0.0000       0.348783         9.4909 
  19   0.0000       0.571535        15.5523 
  20   0.0000       0.590023        16.0553 
  21   0.0000       0.741420        20.1751 
  22   0.0000       0.750147        20.4125 
  23   0.0000       0.798425        21.7263 
  24   0.0000       0.812367        22.1056 
  25   0.0000       0.867672        23.6106 
  26   0.0000       0.898786        24.4572 
  27   0.0000       0.955152        25.9910 
  28   0.0000       0.966118        26.2894 
  29   0.0000       1.080557        29.4035 
  30   0.0000       1.118256        30.4293 
  31   0.0000       1.132293        30.8112 
  32   0.0000       1.170157        31.8416 
  33   0.0000       1.175672        31.9917 
  34   0.0000       1.450630        39.4736 
  35   0.0000       1.473292        40.0903 
  36   0.0000       1.488298        40.4987 
  37   0.0000       1.696060        46.1521 
  38   0.0000       1.738586        47.3093 
  39   0.0000       1.742560        47.4175 
  40   0.0000       2.762717        75.1774 
  41   0.0000       2.780320        75.6563 
  42   0.0000       2.884107        78.4805 
  43   0.0000       2.927451        79.6600 
  44   0.0000       2.958113        80.4943 
  45   0.0000       2.999243        81.6136 
  46   0.0000       3.026341        82.3509 
  47   0.0000       3.200326        87.0853 
  48   0.0000       3.220609        87.6372 
  49   0.0000       3.309725        90.0622 
  50   0.0000       3.325033        90.4787 
  51   0.0000       3.696108       100.5762 
  52   0.0000       3.735396       101.6453 
  53   0.0000       3.777048       102.7787 
  54   0.0000       3.883912       105.6866 
  55   0.0000       3.922672       106.7413 
  56   0.0000       4.020226       109.3959 
  57   0.0000       4.080584       111.0383 
  58   0.0000       4.109150       111.8157 
  59   0.0000       4.147686       112.8643 
  60   0.0000       4.558353       124.0391 
  61   0.0000       5.019249       136.5807 
  62   0.0000       5.229031       142.2892 
  63   0.0000       5.369223       146.1040 
  64   0.0000       5.496208       149.5594 
  65   0.0000       6.003665       163.3680 
  66   0.0000       6.102516       166.0579 
  67   0.0000       7.689808       209.2503 
  68   0.0000      29.049937       790.4890 
  69   0.0000      37.032729      1007.7118 
  70   0.0000      37.176070      1011.6123 
  71   0.0000      37.208214      1012.4870 
  72   0.0000     133.478289      3632.1289 

                    ********************************
                    * MULLIKEN POPULATION ANALYSIS *
                    ********************************

--------------------------------------------
MULLIKEN ATOMIC CHARGES AND SPIN POPULATIONS
--------------------------------------------
   0 C :   -0.428087    1.109309
   1 H :    0.143758   -0.033725
   2 H :    0.136756   -0.039177
   3 H :    0.147574   -0.036407
Sum of atomic charges         :    0.0000000
Sum of atomic spin populations:    1.0000000

-----------------------------------------------------
MULLIKEN REDUCED ORBITAL CHARGES AND SPIN POPULATIONS
-----------------------------------------------------
CHARGE
  0 C s       :     3.350126  s :     3.350126
      pz      :     1.001353  p :     3.050670
      px      :     1.010626
      py      :     1.038691
      dz2     :     0.001956  d :     0.024437
      dxz     :     0.006010
      dyz     :     0.004767
      dx2y2   :     0.006267
      dxy     :     0.005438
      f0      :     0.000453  f :     0.002855
      f+1     :     0.000268
      f-1     :     0.000177
      f+2     :     0.000559
      f-2     :     0.000490
      f+3     :     0.000514
      f-3     :     0.000393
  1 H s       :     0.828392  s :     0.828392
      pz      :     0.009384  p :     0.027850
      px      :     0.009404
      py      :     0.009062
  2 H s       :     0.838880  s :     0.838880
      pz      :     0.009253  p :     0.024364
      px      :     0.009044
      py      :     0.006067
  3 H s       :     0.826518  s :     0.826518
      pz      :     0.008811  p :     0.025908
      px      :     0.008023
      py      :     0.009074

SPIN
  0 C s       :     0.068109  s :     0.068109
      pz      :     0.544899  p :     1.045502
      px      :     0.445524
      py      :     0.055079
      dz2     :    -0.000363  d :    -0.002977
      dxz     :    -0.002884
      dyz     :     0.000136
      dx2y2   :    -0.000389
      dxy     :     0.000523
      f0      :    -0.000329  f :    -0.001325
      f+1     :    -0.000157
      f-1     :    -0.000132
      f+2     :    -0.000115
      f-2     :    -0.000346
      f+3     :    -0.000123
      f-3     :    -0.000122
  1 H s       :    -0.044052  s :    -0.044052
      pz      :     0.005688  p :     0.010327
      px      :     0.004607
      py      :     0.000032
  2 H s       :    -0.048162  s :    -0.048162
      pz      :     0.005148  p :     0.008985
      px      :     0.003935
      py      :    -0.000098
  3 H s       :    -0.046444  s :    -0.046444
      pz      :     0.005477  p :     0.010037
      px      :     0.004419
      py      :     0.000141


                     *******************************
                     * LOEWDIN POPULATION ANALYSIS *
                     *******************************

-------------------------------------------
LOEWDIN ATOMIC CHARGES AND SPIN POPULATIONS
-------------------------------------------
   0 C :   -0.174822    0.920578
   1 H :    0.035298    0.034348
   2 H :    0.073823    0.020769
   3 H :    0.065701    0.024305

----------------------------------------------------
LOEWDIN REDUCED ORBITAL CHARGES AND SPIN POPULATIONS
----------------------------------------------------
CHARGE
  0 C s       :     2.905156  s :     2.905156
      pz      :     0.999948  p :     3.172383
      px      :     1.030255
      py      :     1.142179
      dz2     :     0.006905  d :     0.090034
      dxz     :     0.015094
      dyz     :     0.019529
      dx2y2   :     0.025143
      dxy     :     0.023363
      f0      :     0.001236  f :     0.007250
      f+1     :     0.000763
      f-1     :     0.000480
      f+2     :     0.001202
      f-2     :     0.001487
      f+3     :     0.001220
      f-3     :     0.000863
  1 H s       :     0.811020  s :     0.811020
      pz      :     0.044879  p :     0.153682
      px      :     0.049954
      py      :     0.058849
  2 H s       :     0.798948  s :     0.798948
      pz      :     0.048844  p :     0.127229
      px      :     0.050997
      py      :     0.027388
  3 H s       :     0.800538  s :     0.800538
      pz      :     0.037830  p :     0.133761
      px      :     0.032821
      py      :     0.063110

SPIN
  0 C s       :     0.020959  s :     0.020959
      pz      :     0.485786  p :     0.908586
      px      :     0.393482
      py      :     0.029319
      dz2     :    -0.000684  d :    -0.007624
      dxz     :    -0.003079
      dyz     :    -0.001075
      dx2y2   :    -0.001811
      dxy     :    -0.000975
      f0      :    -0.000326  f :    -0.001343
      f+1     :    -0.000087
      f-1     :    -0.000127
      f+2     :    -0.000138
      f-2     :    -0.000348
      f+3     :    -0.000172
      f-3     :    -0.000146
  1 H s       :    -0.016140  s :    -0.016140
      pz      :     0.025165  p :     0.050488
      px      :     0.021140
      py      :     0.004183
  2 H s       :    -0.019765  s :    -0.019765
      pz      :     0.021374  p :     0.040535
      px      :     0.017751
      py      :     0.001409
  3 H s       :    -0.019270  s :    -0.019270
      pz      :     0.021495  p :     0.043575
      px      :     0.017107
      py      :     0.004972


                      *****************************
                      * MAYER POPULATION ANALYSIS *
                      *****************************

  NA   - Mulliken gross atomic population
  ZA   - Total nuclear charge
  QA   - Mulliken gross atomic charge
  VA   - Mayer's total valence
  BVA  - Mayer's bonded valence
  FA   - Mayer's free valence

  ATOM       NA         ZA         QA         VA         BVA        FA
  0 C      6.4281     6.0000    -0.4281     3.8674     2.9193     0.9481
  1 H      0.8562     1.0000     0.1438     0.9793     0.9774     0.0019
  2 H      0.8632     1.0000     0.1368     0.9816     0.9794     0.0023
  3 H      0.8524     1.0000     0.1476     0.9842     0.9820     0.0022

  Mayer bond orders larger than 0.100000
B(  0-C ,  1-H ) :   0.9736 B(  0-C ,  2-H ) :   0.9740 B(  0-C ,  3-H ) :   0.9716 


-------
TIMINGS
-------

Total SCF time: 0 days 0 hours 0 min 4 sec 

Total time                  ....       4.962 sec
Sum of individual times     ....       4.363 sec  ( 87.9%)

Fock matrix formation       ....       3.661 sec  ( 73.8%)
  Split-RI-J                ....       0.393 sec  ( 10.7% of F)
  Chain of spheres X        ....       0.887 sec  ( 24.2% of F)
  XC integration            ....       1.547 sec  ( 42.3% of F)
    Basis function eval.    ....       0.110 sec  (  7.1% of XC)
    Density eval.           ....       0.112 sec  (  7.2% of XC)
    XC-Functional eval.     ....       0.104 sec  (  6.7% of XC)
    XC-Potential eval.      ....       0.158 sec  ( 10.2% of XC)
Diagonalization             ....       0.039 sec  (  0.8%)
Density matrix formation    ....       0.002 sec  (  0.0%)
Population analysis         ....       0.072 sec  (  1.4%)
Initial guess               ....       0.053 sec  (  1.1%)
Orbital Transformation      ....       0.000 sec  (  0.0%)
Orbital Orthonormalization  ....       0.000 sec  (  0.0%)
DIIS solution               ....       0.088 sec  (  1.8%)
Grid generation             ....       0.448 sec  (  9.0%)

Maximum memory used throughout the entire SCF-calculation: 59.0 MB

-------------------------   --------------------
FINAL SINGLE POINT ENERGY       -39.823847778846
-------------------------   --------------------

   --->>> g-tensor requested, so NeedSOC=true

                            ***************************************
                            *     ORCA property calculations      *
                            ***************************************

                                    ---------------------
                                    Active property flags
                                    ---------------------
   (+) Dipole Moment
   (+) g-tensor
   (+) Nuclear properties (Hyperfine,Quadrupole)
   (+) Spin-Orbit Integrals are needed


------------------------------------------------------------------------------
                       ORCA ELECTRIC PROPERTIES CALCULATION
------------------------------------------------------------------------------

Dipole Moment Calculation                       ... on
Quadrupole Moment Calculation                   ... off
Polarizability Calculation                      ... off
GBWName                                         ... /home/rwth0701/scratch/cs681498/orcajob__30556183-HEIX/4110.gbw
Electron density                                ... /home/rwth0701/scratch/cs681498/orcajob__30556183-HEIX/4110.scfp
The origin for moment calculation is the CENTER OF MASS  = (-6.004250, -35.013779 -21.181715)

-------------
DIPOLE MOMENT
-------------
                                X             Y             Z
Electronic contribution:      0.06901      -0.04453       0.04022
Nuclear contribution   :     -0.07020       0.05846      -0.02642
                        -----------------------------------------
Total Dipole Moment    :     -0.00119       0.01393       0.01380
                        -----------------------------------------
Magnitude (a.u.)       :      0.01965
Magnitude (Debye)      :      0.04994



--------------------
Rotational spectrum 
--------------------
 
Rotational constants in cm-1:     9.997827     8.239467     4.518351 
Rotational constants in MHz : 299727.307211 247012.992643 135456.757945 

 Dipole components along the rotational axes: 
x,y,z [a.u.] :    -0.005315     0.013850     0.012881 
x,y,z [Debye]:    -0.013510     0.035205     0.032740 

 


           ************************************************************
           *        Program running with 4 parallel MPI-processes     *
           *              working on a common directory               *
           ************************************************************
------------------------------------------------------------------------------
                         ORCA SPIN-ORBIT COUPLING CALCULATION
------------------------------------------------------------------------------

GBW file                                    ... /home/rwth0701/scratch/cs681498/orcajob__30556183-HEIX/4110.gbw
Input density                               ... /home/rwth0701/scratch/cs681498/orcajob__30556183-HEIX/4110.scfp
Output integrals                            ... /home/rwth0701/scratch/cs681498/orcajob__30556183-HEIX/4110
Operator type                               ... Mean-field/Effective potential
   One-Electron Terms                       ... 1
   Coulomb Contribution                     ... 3
   Exchange Contribution                    ... 3
   Correlation Contribution                 ... 0
   Maximum number of centers                ... 4
SHARK 2-electron RIJ-SOMF                   ... done (  0.1 sec)
SHARK 1-electron  MaxCenter=4               ... done (  0.0 sec)
SHARK 2-electron DoJ,X=0,1 MaxCenter=1      ... done (  0.1 sec)

Maximum memory used throughout the entire SOC-calculation: 11.3 MB
Total time for SOC:  2.198


           ************************************************************
           *        Program running with 4 parallel MPI-processes     *
           *              working on a common directory               *
           ************************************************************
------------------------------------------------------------------------------
                                ORCA EPR/NMR CALCULATION
------------------------------------------------------------------------------

GBWName                      ... /home/rwth0701/scratch/cs681498/orcajob__30556183-HEIX/4110.gbw
Electron density             ... /home/rwth0701/scratch/cs681498/orcajob__30556183-HEIX/4110.scfp
Spin density                 ... /home/rwth0701/scratch/cs681498/orcajob__30556183-HEIX/4110.scfr
Spin-orbit integrals         ... /home/rwth0701/scratch/cs681498/orcajob__30556183-HEIX/4110
Treatment of gauge           ... GIAO (approximations 1/2el = 0,0)
Details of the CP(SCF) procedure:
       Solver   = POPLE   
       MaxIter  =    64   
       Tolerance=    1.000e-03
       COSX Grid=     1   
       Op-0     =   0-  4 =>   5- 72
       Op-1     =   0-  3 =>   4- 72
Multiplicity                 ... 2
g-tensor                     ... 1
NMR chemical shifts          ... 0
NMR spin-spin couplings      ... 0
NMR spectrum                 ... 0
Number of nuclei for epr/nmr ... 4
   Nucleus:   1H 
       Hyperfine : Isotope=    1 I=   0.500 P= 533.551
       Quadrupole: Isotope=    2 I=   1.000 Q=   0.003
       Spin-Orbit: Zeff=   1.000
       Nuclear Spin-Spin: Gn=   0.000
       EPRNMR Input: 
       rho(0)=N f(grad)=N a(iso)=Y a(dip)=Y a(orb)=Y sigma(nmr)=N spin-spin(nmr)=all-N,DSO-N,PSO-N,FC-N,SD-N
   Nucleus:   2H 
       Hyperfine : Isotope=    1 I=   0.500 P= 533.551
       Quadrupole: Isotope=    2 I=   1.000 Q=   0.003
       Spin-Orbit: Zeff=   1.000
       Nuclear Spin-Spin: Gn=   0.000
       EPRNMR Input: 
       rho(0)=N f(grad)=N a(iso)=Y a(dip)=Y a(orb)=Y sigma(nmr)=N spin-spin(nmr)=all-N,DSO-N,PSO-N,FC-N,SD-N
   Nucleus:   3H 
       Hyperfine : Isotope=    1 I=   0.500 P= 533.551
       Quadrupole: Isotope=    2 I=   1.000 Q=   0.003
       Spin-Orbit: Zeff=   1.000
       Nuclear Spin-Spin: Gn=   0.000
       EPRNMR Input: 
       rho(0)=N f(grad)=N a(iso)=Y a(dip)=Y a(orb)=Y sigma(nmr)=N spin-spin(nmr)=all-N,DSO-N,PSO-N,FC-N,SD-N
   Nucleus:   0C 
       Hyperfine : Isotope=   13 I=   0.500 P= 134.190
       Quadrupole: Isotope=   13 I=   0.500 Q=   0.000
       Spin-Orbit: Zeff=   3.600
       Nuclear Spin-Spin: Gn=   0.000
       EPRNMR Input: 
       rho(0)=N f(grad)=N a(iso)=Y a(dip)=Y a(orb)=Y sigma(nmr)=N spin-spin(nmr)=all-N,DSO-N,PSO-N,FC-N,SD-N
Forming RHS of the CP-SCF equations         ... 
Calculating right hand sides for GIAO treatment        ... 
  Entering RightHandSide GIAO. ScalHFX=    0.2000 NeedHFX=1
     -> 1-electron GIAO integrals will be done analytically
     -> RIJCOSX used in SCF. Same chosen for GIAO calculation.
     Making grid for GIAO integrations   ...

GRID GIAO
---------

General Integration Accuracy     IntAcc      ... 4.388
Radial Grid Type                 RadialGrid  ... OptM3 with GC (2021)
Angular Grid (max. ang.)         AngularGrid ... 4 (Lebedev-302)
Angular grid pruning method      GridPruning ... 4 (adaptive)
Weight generation scheme         WeightScheme... Becke
Basis function cutoff            BFCut       ... 1.0000e-10
Integration weight cutoff        WCut        ... 1.0000e-14
Angular grids for H and He will be reduced by one unit
Partially contracted basis set               ... off
Rotationally invariant grid construction     ... off

Total number of grid points                  ...    17067
Total number of batches                      ...      268
Average number of points per batch           ...       63
Average number of grid points per atom       ...     4267

  One-electron GIAO integrals (SHARK)     ... done
  Calculating G(B)[P]                     ... (RI-J: SHARK-ok) (COSX-ok) (add-J+K:ok) => dG/dB done
  DFT XC-terms                            ... done
  Extracting occupied and virtual blocks  ... 
  Operator  0  NO=   5 NV=  68 
  Operator  1  NO=   4 NV=  69 
  Transforming and RHS contribution       ... done
  Adding eps_i * S(B)_ai terms            ... done
  Projecting overlap derivatives          ... done
  Building G[dS/dB_ij] (COSX)             ... done
  Transforming to MO basis                ... done
  Summing G[dS/dB_ij] into RHS contribs.  ... done

  GIAO profiling information: 
    Total GIAO time               ...       0.8 sec
       GIAO 1-electron integrals  ...       0.0 sec (  0.4%)
       GIAO G(dS/dB) terms        ...       0.1 sec ( 13.8%)
       GIAO RI-J                  ...       0.1 sec ( 13.1%)
       GIAO COSX                  ...       0.2 sec ( 18.9%)
       GIAO XC-terms              ...       0.3 sec ( 36.6%)

  GIAO right hand side done


------------------------------------------------------------------------------
                           ORCA CP-SCF CALCULATION
------------------------------------------------------------------------------

Input orbitals are from        ... /home/rwth0701/scratch/cs681498/orcajob__30556183-HEIX/4110.gbw
Input Perturbation             ... /home/rwth0701/scratch/cs681498/orcajob__30556183-HEIX/4110.pin.tmp
Wavefunction output            ... /home/rwth0701/scratch/cs681498/orcajob__30556183-HEIX/4110.pout.tmp
Perturbation mode              ... Imaginary perturbation
Solver                         ... POPLE
Max. number of iterations      ... 64
Convergence tolerance          ... 1.000e-03
Integral handling              ... Direct
DFT GridXC                     ... 1
COSX GridX                     ... 1
COSX IntAccX                   ... 3.067
COSX Algorithm                 ... Auto
Number of perturbations        ... 3
Number of operators            ... 2
Orbital ranges used for CP-SCF:
 Operator 0:  Orbitals   0...  4  to   5... 72
 Operator 1:  Orbitals   0...  3  to   4... 72
Variables per perturbation     ... 616
DFT calculation                         ... on
XC functional terms                     ... off
Hybrid DFT                              ... on
   Exchange mixing (SCF)                ...  0.200
   Exchange mixing (CP-SCF)             ...  0.200
   GGA exch. scaling(SCF)               ...  0.720
   GGA exch. scaling (CP-SCF)           ...  0.720
   GGA corr. scaling (SCF)              ...  0.810
   GGA corr. scaling (CP-SCF)           ...  0.810

CP-SCF GRID
-----------

General Integration Accuracy     IntAcc      ... 3.467
Radial Grid Type                 RadialGrid  ... OptM3 with GC (2021)
Angular Grid (max. ang.)         AngularGrid ... 1 (Lebedev-50)
Angular grid pruning method      GridPruning ... 4 (adaptive)
Weight generation scheme         WeightScheme... Becke
Basis function cutoff            BFCut       ... 1.0000e-10
Integration weight cutoff        WCut        ... 1.0000e-14
Angular grids for H and He will be reduced by one unit
Partially contracted basis set               ... off
Rotationally invariant grid construction     ... off

Total number of grid points                  ...     2338
Total number of batches                      ...       38
Average number of points per batch           ...       61
Average number of grid points per atom       ...      584

CP-SCF GRIDX
------------

General Integration Accuracy     IntAcc      ... 3.067
Radial Grid Type                 RadialGrid  ... OptM3 with GC (2021)
Angular Grid (max. ang.)         AngularGrid ... 1 (Lebedev-50)
Angular grid pruning method      GridPruning ... 4 (adaptive)
Weight generation scheme         WeightScheme... Becke
Basis function cutoff            BFCut       ... 1.0000e-10
Integration weight cutoff        WCut        ... 1.0000e-14
Angular grids for H and He will be reduced by one unit
Partially contracted basis set               ... on
Rotationally invariant grid construction     ... off

Total number of grid points                  ...     1075
Total number of batches                      ...       20
Average number of points per batch           ...       53
Average number of grid points per atom       ...      269

Memory available               ... 1014.6 MB
Memory needed per perturbation ...   0.4 MB
Perturbations treated per batch... 3
Number of batches              ... 1
     CP-SCF ITERATION   0:   1.7501e+00 (   0.1 sec   0/  3 done)
     CP-SCF ITERATION   1:   2.4016e-02 (   0.1 sec   0/  3 done)
     CP-SCF ITERATION   2:   2.4089e-03 (   0.1 sec   0/  3 done)
     CP-SCF ITERATION   3:   9.5895e-05 (   0.1 sec   3/  3 done)
                    *** THE CP-SCF HAS CONVERGED ***

Forming final perturbed densities           ... done
Transforming perturbed density to AO basis  ... done

Magnetic field perturbation calculated in  1.351 sec
GIAO: Diamagnetic terms      (analytic)     (SHARK) ... done
GIAO: 1el-Paramagnetic terms (analytic)     (SHARK) ... done

-------------------
ELECTRONIC G-MATRIX
-------------------

 The g-matrix: 
              2.0025902    0.0000426    0.0003150
              0.0000418    2.0028769   -0.0000822
              0.0003189   -0.0000763    2.0025306

 gel          2.0023193    2.0023193    2.0023193
 gRMC        -0.0001279   -0.0001279   -0.0001279
 gDSO(tot)    0.0000344    0.0000707    0.0000708
 gPSO(tot)    0.0000045    0.0005991    0.0006441
             ----------   ----------   ----------
 g(tot)       2.0022303    2.0028612    2.0029062 iso=  2.0026659
 Delta-g     -0.0000890    0.0005419    0.0005869 iso=  0.0003466
 Orientation: 
  X          -0.6637890   -0.6358208    0.3938479
  Y           0.1335224   -0.6188730   -0.7740594
  Z           0.7359049   -0.4612246    0.4956974

Notes:  (1) The g-matrix conforms to the "BgS" spin Hamiltonian convention. 
        (2) The principal values are square roots of the eigenvalues of g*gT.
        (3) Orientations are eigenvectors of g*gT written as column vectors.
        (4) Individual contributions are projections of the full matrices onto the eigenvectors of g*gT.
        (5) Tensor is right-handed.


-----------------------------------------
ELECTRIC AND MAGNETIC HYPERFINE STRUCTURE
-----------------------------------------

 -----------------------------------------------------------
 Nucleus   1H : A:ISTP=    1 I=  0.5 P=533.5514 MHz/au**3
                Q:ISTP=    2 I=  1.0 Q=  0.0029 barn     
 -----------------------------------------------------------
 Solving for nuclear perturbation:
Forming RHS of the CP-SCF equations         ... 
Calc. nucleus orbit integrals (SHARK)       ... done

------------------------------------------------------------------------------
                           ORCA CP-SCF CALCULATION
------------------------------------------------------------------------------

Input orbitals are from        ... /home/rwth0701/scratch/cs681498/orcajob__30556183-HEIX/4110.gbw
Input Perturbation             ... /home/rwth0701/scratch/cs681498/orcajob__30556183-HEIX/4110.pin.tmp
Wavefunction output            ... /home/rwth0701/scratch/cs681498/orcajob__30556183-HEIX/4110.pout.tmp
Perturbation mode              ... Imaginary perturbation
Solver                         ... POPLE
Max. number of iterations      ... 64
Convergence tolerance          ... 1.000e-03
Integral handling              ... Direct
DFT GridXC                     ... 1
COSX GridX                     ... 1
COSX IntAccX                   ... 3.067
COSX Algorithm                 ... Auto
Number of perturbations        ... 3
Number of operators            ... 2
Orbital ranges used for CP-SCF:
 Operator 0:  Orbitals   0...  4  to   5... 72
 Operator 1:  Orbitals   0...  3  to   4... 72
Variables per perturbation     ... 616
DFT calculation                         ... on
XC functional terms                     ... off
Hybrid DFT                              ... on
   Exchange mixing (SCF)                ...  0.200
   Exchange mixing (CP-SCF)             ...  0.200
   GGA exch. scaling(SCF)               ...  0.720
   GGA exch. scaling (CP-SCF)           ...  0.720
   GGA corr. scaling (SCF)              ...  0.810
   GGA corr. scaling (CP-SCF)           ...  0.810

CP-SCF GRID
-----------

General Integration Accuracy     IntAcc      ... 3.467
Radial Grid Type                 RadialGrid  ... OptM3 with GC (2021)
Angular Grid (max. ang.)         AngularGrid ... 1 (Lebedev-50)
Angular grid pruning method      GridPruning ... 4 (adaptive)
Weight generation scheme         WeightScheme... Becke
Basis function cutoff            BFCut       ... 1.0000e-10
Integration weight cutoff        WCut        ... 1.0000e-14
Angular grids for H and He will be reduced by one unit
Partially contracted basis set               ... off
Rotationally invariant grid construction     ... off

Total number of grid points                  ...     2338
Total number of batches                      ...       38
Average number of points per batch           ...       61
Average number of grid points per atom       ...      584

CP-SCF GRIDX
------------

General Integration Accuracy     IntAcc      ... 3.067
Radial Grid Type                 RadialGrid  ... OptM3 with GC (2021)
Angular Grid (max. ang.)         AngularGrid ... 1 (Lebedev-50)
Angular grid pruning method      GridPruning ... 4 (adaptive)
Weight generation scheme         WeightScheme... Becke
Basis function cutoff            BFCut       ... 1.0000e-10
Integration weight cutoff        WCut        ... 1.0000e-14
Angular grids for H and He will be reduced by one unit
Partially contracted basis set               ... on
Rotationally invariant grid construction     ... off

Total number of grid points                  ...     1075
Total number of batches                      ...       20
Average number of points per batch           ...       53
Average number of grid points per atom       ...      269

Memory available               ... 968.0 MB
Memory needed per perturbation ...   0.4 MB
Perturbations treated per batch... 3
Number of batches              ... 1
     CP-SCF ITERATION   0:   6.5946e-02 (   0.1 sec   0/  3 done)
     CP-SCF ITERATION   1:   2.5107e-03 (   0.1 sec   0/  3 done)
     CP-SCF ITERATION   2:   2.1111e-04 (   0.1 sec   3/  3 done)
                    *** THE CP-SCF HAS CONVERGED ***

Forming final perturbed densities           ... done
Transforming perturbed density to AO basis  ... done

 Raw HFC matrix (all values in MHz): 
 -----------------------------------
               -64.8089              29.0097              -7.6705
                29.0099             -53.4956              25.1771
                -7.6705              25.1770             -73.0752

 A(FC)         -63.8070             -63.8070             -63.8070
 A(SD)          39.3497               2.0171             -41.3668
 A(ORB+DIA)      0.0098              -0.0005               0.0321    A(PC) =   0.0138
 A(ORB)          0.0047               0.0006               0.0306    A(PC) =   0.0120
 A(DIA)          0.0052              -0.0012               0.0015    A(PC) =   0.0018
             ----------           ----------           ----------
 A(Tot)        -24.4475             -61.7905            -105.1418    A(iso)=  -63.7932
 Orientation: 
  X           0.5083310           -0.6703618            0.5405688
  Y           0.7948594            0.1237043           -0.5940503
  Z           0.3313580            0.7316504            0.5957261

Notes:  (1) The A matrix conforms to the "SAI" spin Hamiltonian convention.
        (2) Tensor is right-handed.

 -----------------------------------------------------------
 Nucleus   2H : A:ISTP=    1 I=  0.5 P=533.5514 MHz/au**3
                Q:ISTP=    2 I=  1.0 Q=  0.0029 barn     
 -----------------------------------------------------------
 Solving for nuclear perturbation:
Forming RHS of the CP-SCF equations         ... 
Calc. nucleus orbit integrals (SHARK)       ... done

------------------------------------------------------------------------------
                           ORCA CP-SCF CALCULATION
------------------------------------------------------------------------------

Input orbitals are from        ... /home/rwth0701/scratch/cs681498/orcajob__30556183-HEIX/4110.gbw
Input Perturbation             ... /home/rwth0701/scratch/cs681498/orcajob__30556183-HEIX/4110.pin.tmp
Wavefunction output            ... /home/rwth0701/scratch/cs681498/orcajob__30556183-HEIX/4110.pout.tmp
Perturbation mode              ... Imaginary perturbation
Solver                         ... POPLE
Max. number of iterations      ... 64
Convergence tolerance          ... 1.000e-03
Integral handling              ... Direct
DFT GridXC                     ... 1
COSX GridX                     ... 1
COSX IntAccX                   ... 3.067
COSX Algorithm                 ... Auto
Number of perturbations        ... 3
Number of operators            ... 2
Orbital ranges used for CP-SCF:
 Operator 0:  Orbitals   0...  4  to   5... 72
 Operator 1:  Orbitals   0...  3  to   4... 72
Variables per perturbation     ... 616
DFT calculation                         ... on
XC functional terms                     ... off
Hybrid DFT                              ... on
   Exchange mixing (SCF)                ...  0.200
   Exchange mixing (CP-SCF)             ...  0.200
   GGA exch. scaling(SCF)               ...  0.720
   GGA exch. scaling (CP-SCF)           ...  0.720
   GGA corr. scaling (SCF)              ...  0.810
   GGA corr. scaling (CP-SCF)           ...  0.810

CP-SCF GRID
-----------

General Integration Accuracy     IntAcc      ... 3.467
Radial Grid Type                 RadialGrid  ... OptM3 with GC (2021)
Angular Grid (max. ang.)         AngularGrid ... 1 (Lebedev-50)
Angular grid pruning method      GridPruning ... 4 (adaptive)
Weight generation scheme         WeightScheme... Becke
Basis function cutoff            BFCut       ... 1.0000e-10
Integration weight cutoff        WCut        ... 1.0000e-14
Angular grids for H and He will be reduced by one unit
Partially contracted basis set               ... off
Rotationally invariant grid construction     ... off

Total number of grid points                  ...     2338
Total number of batches                      ...       38
Average number of points per batch           ...       61
Average number of grid points per atom       ...      584

CP-SCF GRIDX
------------

General Integration Accuracy     IntAcc      ... 3.067
Radial Grid Type                 RadialGrid  ... OptM3 with GC (2021)
Angular Grid (max. ang.)         AngularGrid ... 1 (Lebedev-50)
Angular grid pruning method      GridPruning ... 4 (adaptive)
Weight generation scheme         WeightScheme... Becke
Basis function cutoff            BFCut       ... 1.0000e-10
Integration weight cutoff        WCut        ... 1.0000e-14
Angular grids for H and He will be reduced by one unit
Partially contracted basis set               ... on
Rotationally invariant grid construction     ... off

Total number of grid points                  ...     1075
Total number of batches                      ...       20
Average number of points per batch           ...       53
Average number of grid points per atom       ...      269

Memory available               ... 967.8 MB
Memory needed per perturbation ...   0.4 MB
Perturbations treated per batch... 3
Number of batches              ... 1
     CP-SCF ITERATION   0:   5.4149e-02 (   0.1 sec   0/  3 done)
     CP-SCF ITERATION   1:   2.1823e-03 (   0.1 sec   0/  3 done)
     CP-SCF ITERATION   2:   1.5276e-04 (   0.1 sec   3/  3 done)
                    *** THE CP-SCF HAS CONVERGED ***

Forming final perturbed densities           ... done
Transforming perturbed density to AO basis  ... done

 Raw HFC matrix (all values in MHz): 
 -----------------------------------
               -52.0780             -15.3608              17.4700
               -15.3612             -97.9120              -8.1793
                17.4700              -8.1790             -52.4113

 A(FC)         -67.4804             -67.4804             -67.4804
 A(SD)          36.8625              -1.5586             -35.3039
 A(ORB+DIA)      0.0121              -0.0007               0.0286    A(PC) =   0.0133
 A(ORB)          0.0078               0.0004               0.0274    A(PC) =   0.0119
 A(DIA)          0.0043              -0.0011               0.0012    A(PC) =   0.0015
             ----------           ----------           ----------
 A(Tot)        -30.6058             -69.0397            -102.7558    A(iso)=  -67.4671
 Orientation: 
  X          -0.7107284           -0.6497104            0.2697065
  Y           0.2424543            0.1336668            0.9609106
  Z          -0.6603644            0.7483379            0.0625242

Notes:  (1) The A matrix conforms to the "SAI" spin Hamiltonian convention.
        (2) Tensor is right-handed.

 -----------------------------------------------------------
 Nucleus   3H : A:ISTP=    1 I=  0.5 P=533.5514 MHz/au**3
                Q:ISTP=    2 I=  1.0 Q=  0.0029 barn     
 -----------------------------------------------------------
 Solving for nuclear perturbation:
Forming RHS of the CP-SCF equations         ... 
Calc. nucleus orbit integrals (SHARK)       ... done

------------------------------------------------------------------------------
                           ORCA CP-SCF CALCULATION
------------------------------------------------------------------------------

Input orbitals are from        ... /home/rwth0701/scratch/cs681498/orcajob__30556183-HEIX/4110.gbw
Input Perturbation             ... /home/rwth0701/scratch/cs681498/orcajob__30556183-HEIX/4110.pin.tmp
Wavefunction output            ... /home/rwth0701/scratch/cs681498/orcajob__30556183-HEIX/4110.pout.tmp
Perturbation mode              ... Imaginary perturbation
Solver                         ... POPLE
Max. number of iterations      ... 64
Convergence tolerance          ... 1.000e-03
Integral handling              ... Direct
DFT GridXC                     ... 1
COSX GridX                     ... 1
COSX IntAccX                   ... 3.067
COSX Algorithm                 ... Auto
Number of perturbations        ... 3
Number of operators            ... 2
Orbital ranges used for CP-SCF:
 Operator 0:  Orbitals   0...  4  to   5... 72
 Operator 1:  Orbitals   0...  3  to   4... 72
Variables per perturbation     ... 616
DFT calculation                         ... on
XC functional terms                     ... off
Hybrid DFT                              ... on
   Exchange mixing (SCF)                ...  0.200
   Exchange mixing (CP-SCF)             ...  0.200
   GGA exch. scaling(SCF)               ...  0.720
   GGA exch. scaling (CP-SCF)           ...  0.720
   GGA corr. scaling (SCF)              ...  0.810
   GGA corr. scaling (CP-SCF)           ...  0.810

CP-SCF GRID
-----------

General Integration Accuracy     IntAcc      ... 3.467
Radial Grid Type                 RadialGrid  ... OptM3 with GC (2021)
Angular Grid (max. ang.)         AngularGrid ... 1 (Lebedev-50)
Angular grid pruning method      GridPruning ... 4 (adaptive)
Weight generation scheme         WeightScheme... Becke
Basis function cutoff            BFCut       ... 1.0000e-10
Integration weight cutoff        WCut        ... 1.0000e-14
Angular grids for H and He will be reduced by one unit
Partially contracted basis set               ... off
Rotationally invariant grid construction     ... off

Total number of grid points                  ...     2338
Total number of batches                      ...       38
Average number of points per batch           ...       61
Average number of grid points per atom       ...      584

CP-SCF GRIDX
------------

General Integration Accuracy     IntAcc      ... 3.067
Radial Grid Type                 RadialGrid  ... OptM3 with GC (2021)
Angular Grid (max. ang.)         AngularGrid ... 1 (Lebedev-50)
Angular grid pruning method      GridPruning ... 4 (adaptive)
Weight generation scheme         WeightScheme... Becke
Basis function cutoff            BFCut       ... 1.0000e-10
Integration weight cutoff        WCut        ... 1.0000e-14
Angular grids for H and He will be reduced by one unit
Partially contracted basis set               ... on
Rotationally invariant grid construction     ... off

Total number of grid points                  ...     1075
Total number of batches                      ...       20
Average number of points per batch           ...       53
Average number of grid points per atom       ...      269

Memory available               ... 967.7 MB
Memory needed per perturbation ...   0.4 MB
Perturbations treated per batch... 3
Number of batches              ... 1
     CP-SCF ITERATION   0:   6.3772e-02 (   0.1 sec   0/  3 done)
     CP-SCF ITERATION   1:   2.3915e-03 (   0.1 sec   0/  3 done)
     CP-SCF ITERATION   2:   1.8415e-04 (   0.1 sec   3/  3 done)
                    *** THE CP-SCF HAS CONVERGED ***

Forming final perturbed densities           ... done
Transforming perturbed density to AO basis  ... done

 Raw HFC matrix (all values in MHz): 
 -----------------------------------
               -88.0111             -14.4255             -13.7119
               -14.4247             -40.5570             -19.0874
               -13.7121             -19.0882             -78.0569

 A(FC)         -68.8880             -68.8880             -68.8880
 A(SD)          37.5893              -0.6955             -36.8938
 A(ORB+DIA)      0.0110              -0.0006               0.0287    A(PC) =   0.0130
 A(ORB)          0.0065               0.0005               0.0275    A(PC) =   0.0115
 A(DIA)          0.0045              -0.0011               0.0012    A(PC) =   0.0015
             ----------           ----------           ----------
 A(Tot)        -31.2877             -69.5842            -105.7531    A(iso)=  -68.8750
 Orientation: 
  X          -0.1557563           -0.6637662            0.7315425
  Y           0.9297003            0.1517244            0.3356145
  Z          -0.3337624            0.7323893            0.5934716

Notes:  (1) The A matrix conforms to the "SAI" spin Hamiltonian convention.
        (2) Tensor is right-handed.

 -----------------------------------------------------------
 Nucleus   0C : A:ISTP=   13 I=  0.5 P=134.1903 MHz/au**3
                Q:ISTP=   13 I=  0.5 Q=  0.0000 barn     
 -----------------------------------------------------------
 Solving for nuclear perturbation:
Forming RHS of the CP-SCF equations         ... 
Calc. nucleus orbit integrals (SHARK)       ... done

------------------------------------------------------------------------------
                           ORCA CP-SCF CALCULATION
------------------------------------------------------------------------------

Input orbitals are from        ... /home/rwth0701/scratch/cs681498/orcajob__30556183-HEIX/4110.gbw
Input Perturbation             ... /home/rwth0701/scratch/cs681498/orcajob__30556183-HEIX/4110.pin.tmp
Wavefunction output            ... /home/rwth0701/scratch/cs681498/orcajob__30556183-HEIX/4110.pout.tmp
Perturbation mode              ... Imaginary perturbation
Solver                         ... POPLE
Max. number of iterations      ... 64
Convergence tolerance          ... 1.000e-03
Integral handling              ... Direct
DFT GridXC                     ... 1
COSX GridX                     ... 1
COSX IntAccX                   ... 3.067
COSX Algorithm                 ... Auto
Number of perturbations        ... 3
Number of operators            ... 2
Orbital ranges used for CP-SCF:
 Operator 0:  Orbitals   0...  4  to   5... 72
 Operator 1:  Orbitals   0...  3  to   4... 72
Variables per perturbation     ... 616
DFT calculation                         ... on
XC functional terms                     ... off
Hybrid DFT                              ... on
   Exchange mixing (SCF)                ...  0.200
   Exchange mixing (CP-SCF)             ...  0.200
   GGA exch. scaling(SCF)               ...  0.720
   GGA exch. scaling (CP-SCF)           ...  0.720
   GGA corr. scaling (SCF)              ...  0.810
   GGA corr. scaling (CP-SCF)           ...  0.810

CP-SCF GRID
-----------

General Integration Accuracy     IntAcc      ... 3.467
Radial Grid Type                 RadialGrid  ... OptM3 with GC (2021)
Angular Grid (max. ang.)         AngularGrid ... 1 (Lebedev-50)
Angular grid pruning method      GridPruning ... 4 (adaptive)
Weight generation scheme         WeightScheme... Becke
Basis function cutoff            BFCut       ... 1.0000e-10
Integration weight cutoff        WCut        ... 1.0000e-14
Angular grids for H and He will be reduced by one unit
Partially contracted basis set               ... off
Rotationally invariant grid construction     ... off

Total number of grid points                  ...     2338
Total number of batches                      ...       38
Average number of points per batch           ...       61
Average number of grid points per atom       ...      584

CP-SCF GRIDX
------------

General Integration Accuracy     IntAcc      ... 3.067
Radial Grid Type                 RadialGrid  ... OptM3 with GC (2021)
Angular Grid (max. ang.)         AngularGrid ... 1 (Lebedev-50)
Angular grid pruning method      GridPruning ... 4 (adaptive)
Weight generation scheme         WeightScheme... Becke
Basis function cutoff            BFCut       ... 1.0000e-10
Integration weight cutoff        WCut        ... 1.0000e-14
Angular grids for H and He will be reduced by one unit
Partially contracted basis set               ... on
Rotationally invariant grid construction     ... off

Total number of grid points                  ...     1075
Total number of batches                      ...       20
Average number of points per batch           ...       53
Average number of grid points per atom       ...      269

Memory available               ... 967.6 MB
Memory needed per perturbation ...   0.4 MB
Perturbations treated per batch... 3
Number of batches              ... 1
     CP-SCF ITERATION   0:   1.1575e+00 (   0.1 sec   0/  3 done)
     CP-SCF ITERATION   1:   4.1905e-02 (   0.1 sec   0/  3 done)
     CP-SCF ITERATION   2:   3.1676e-03 (   0.1 sec   0/  3 done)
     CP-SCF ITERATION   3:   1.4739e-04 (   0.1 sec   3/  3 done)
                    *** THE CP-SCF HAS CONVERGED ***

Forming final perturbed densities           ... done
Transforming perturbed density to AO basis  ... done

 Raw HFC matrix (all values in MHz): 
 -----------------------------------
               116.0159             -22.0835            -117.9342
               -22.0834              14.1866              24.5059
              -117.9342              24.5058             141.8879

 A(FC)          90.8186              90.8186              90.8186
 A(SD)         -81.0365             -80.3244             161.3609
 A(ORB+DIA)     -0.1790              -0.1731              -0.0134    A(PC) =  -0.1218
 A(ORB)         -0.1794              -0.1734              -0.0133    A(PC) =  -0.1220
 A(DIA)          0.0004               0.0004              -0.0001    A(PC) =   0.0002
             ----------           ----------           ----------
 A(Tot)          9.6030              10.3211             252.1662    A(iso)=   90.6968
 Orientation: 
  X           0.1824006           -0.7277337           -0.6611609
  Y           0.9830310            0.1216453            0.1373040
  Z          -0.0194936           -0.6749860            0.7375730

Notes:  (1) The A matrix conforms to the "SAI" spin Hamiltonian convention.
        (2) Tensor is right-handed.


--------------------------------------------------------------------------------
----------------------------------------------------------------------------
                           ORCA EULER ANGLE PROGRAM
----------------------------------------------------------------------------

Only g-tensor available        -->  using g-tensor as reference tensor

Reference tensor               ...  g

g-tensor ordering              ...  |g_min> --> |gx>
                                    |g_mid> --> |gy>
                                    |g_max> --> |gz>

A- and EFG-tensor ordering     ...  the axes |Ax>, |Qx>, |Ay>, etc. are assigned
                                    such that the Euler rotation is minimal. You
                                    can find the respective eigenvalues as Ax,
                                    EFGx, Ay, etc. in the tables below.
                                    The relation of |Ax>, |Ay>,  etc. to Amin, Amid, etc.
                                    (as printed in the ORCA EPR/NMR CALCULATION Output)
                                    is obtained in the detailed printout.

Euler rotation around          ...  z - y - z
   First rotation              -->  by alpha around z
   Second rotation             -->  by beta around y'
   Third rotation              -->  by gamma around z''
   Positive / Negative angle   -->  clockwise / counterclockwise rotation

Plot EFG-tensors                    (-)
Plot HFC-tensors                    (-)
Detailed Printout                   (-)

-------------------------------------------------------------------------
          Euler rotation of hyperfine tensor to g-tensor
-------------------------------------------------------------------------

-------------------------------------------------------------------
 Atom  |   Alpha    Beta    Gamma   |   Ax       Ay       Az 
       |          [degrees]         |           [MHz]         
-------------------------------------------------------------------
  1H       89.3     14.5    -90.1     -61.79   -24.45  -105.14
  2H       88.9     37.4    -88.3     -69.04  -102.76   -30.61
  3H      -92.8     18.8     93.2     -69.58  -105.75   -31.29
  0C       90.1     44.3    -89.8     252.17     9.60    10.32
-------------------------------------------------------------------


Maximum memory used throughout the entire EPRNMR-calculation: 67.6 MB

Timings for individual modules:

Sum of individual times         ...       17.694 sec (=   0.295 min)
GTO integral calculation        ...        2.303 sec (=   0.038 min)  13.0 %
Spin-Orbit-Coupling Matrices    ...        2.187 sec (=   0.036 min)  12.4 %
SCF iterations                  ...        6.783 sec (=   0.113 min)  38.3 %
EPR/NMR calculation             ...        6.421 sec (=   0.107 min)  36.3 %
                             ****ORCA TERMINATED NORMALLY****
TOTAL RUN TIME: 0 days 0 hours 0 minutes 20 seconds 41 msec
