Job execution start: Tue Oct 25 01:42:57 CEST 2022
Shared library path: /home/cs681498/orca:/opt/MPI/openmpi-4.1.1/linux/gcc_4.8.5/lib:/opt/MPI/openmpi-4.1.1/linux/gcc_4.8.5/lib/lib32
Slurm Job ID is: 30556608
Slurm Job name is: 19991
nrm177

                                 *****************
                                 * O   R   C   A *
                                 *****************

                                            #,                                       
                                            ###                                      
                                            ####                                     
                                            #####                                    
                                            ######                                   
                                           ########,                                 
                                     ,,################,,,,,                         
                               ,,#################################,,                 
                          ,,##########################################,,             
                       ,#########################################, ''#####,          
                    ,#############################################,,   '####,        
                  ,##################################################,,,,####,       
                ,###########''''           ''''###############################       
              ,#####''   ,,,,##########,,,,          '''####'''          '####       
            ,##' ,,,,###########################,,,                        '##       
           ' ,,###''''                  '''############,,,                           
         ,,##''                                '''############,,,,        ,,,,,,###''
      ,#''                                            '''#######################'''  
     '                                                          ''''####''''         
             ,#######,   #######,   ,#######,      ##                                
            ,#'     '#,  ##    ##  ,#'     '#,    #''#        ######   ,####,        
            ##       ##  ##   ,#'  ##            #'  '#       #        #'  '#        
            ##       ##  #######   ##           ,######,      #####,   #    #        
            '#,     ,#'  ##    ##  '#,     ,#' ,#      #,         ##   #,  ,#        
             '#######'   ##     ##  '#######'  #'      '#     #####' # '####'        



                  #######################################################
                  #                        -***-                        #
                  #          Department of theory and spectroscopy      #
                  #    Directorship and core code : Frank Neese         #
                  #        Max Planck Institute fuer Kohlenforschung    #
                  #                Kaiser Wilhelm Platz 1               #
                  #                 D-45470 Muelheim/Ruhr               #
                  #                      Germany                        #
                  #                                                     #
                  #                  All rights reserved                #
                  #                        -***-                        #
                  #######################################################


                         Program Version 5.0.3 -  RELEASE  -


 With contributions from (in alphabetic order):
   Daniel Aravena         : Magnetic Suceptibility
   Michael Atanasov       : Ab Initio Ligand Field Theory (pilot matlab implementation)
   Alexander A. Auer      : GIAO ZORA, VPT2 properties, NMR spectrum
   Ute Becker             : Parallelization
   Giovanni Bistoni       : ED, misc. LED, open-shell LED, HFLD
   Martin Brehm           : Molecular dynamics
   Dmytro Bykov           : SCF Hessian
   Vijay G. Chilkuri      : MRCI spin determinant printing, contributions to CSF-ICE
   Dipayan Datta          : RHF DLPNO-CCSD density
   Achintya Kumar Dutta   : EOM-CC, STEOM-CC
   Dmitry Ganyushin       : Spin-Orbit,Spin-Spin,Magnetic field MRCI
   Miquel Garcia          : C-PCM and meta-GGA Hessian, CC/C-PCM, Gaussian charge scheme
   Yang Guo               : DLPNO-NEVPT2, F12-NEVPT2, CIM, IAO-localization
   Andreas Hansen         : Spin unrestricted coupled pair/coupled cluster methods
   Benjamin Helmich-Paris : MC-RPA, TRAH-SCF, COSX integrals
   Lee Huntington         : MR-EOM, pCC
   Robert Izsak           : Overlap fitted RIJCOSX, COSX-SCS-MP3, EOM
   Marcus Kettner         : VPT2
   Christian Kollmar      : KDIIS, OOCD, Brueckner-CCSD(T), CCSD density, CASPT2, CASPT2-K
   Simone Kossmann        : Meta GGA functionals, TD-DFT gradient, OOMP2, MP2 Hessian
   Martin Krupicka        : Initial AUTO-CI
   Lucas Lang             : DCDCAS
   Marvin Lechner         : AUTO-CI (C++ implementation), FIC-MRCC
   Dagmar Lenk            : GEPOL surface, SMD
   Dimitrios Liakos       : Extrapolation schemes; Compound Job, initial MDCI parallelization
   Dimitrios Manganas     : Further ROCIS development; embedding schemes
   Dimitrios Pantazis     : SARC Basis sets
   Anastasios Papadopoulos: AUTO-CI, single reference methods and gradients
   Taras Petrenko         : DFT Hessian,TD-DFT gradient, ASA, ECA, R-Raman, ABS, FL, XAS/XES, NRVS
   Peter Pinski           : DLPNO-MP2, DLPNO-MP2 Gradient
   Christoph Reimann      : Effective Core Potentials
   Marius Retegan         : Local ZFS, SOC
   Christoph Riplinger    : Optimizer, TS searches, QM/MM, DLPNO-CCSD(T), (RO)-DLPNO pert. Triples
   Tobias Risthaus        : Range-separated hybrids, TD-DFT gradient, RPA, STAB
   Michael Roemelt        : Original ROCIS implementation
   Masaaki Saitow         : Open-shell DLPNO-CCSD energy and density
   Barbara Sandhoefer     : DKH picture change effects
   Avijit Sen             : IP-ROCIS
   Kantharuban Sivalingam : CASSCF convergence, NEVPT2, FIC-MRCI
   Bernardo de Souza      : ESD, SOC TD-DFT
   Georgi Stoychev        : AutoAux, RI-MP2 NMR, DLPNO-MP2 response
   Willem Van den Heuvel  : Paramagnetic NMR
   Boris Wezisla          : Elementary symmetry handling
   Frank Wennmohs         : Technical directorship


 We gratefully acknowledge several colleagues who have allowed us to
 interface, adapt or use parts of their codes:
   Stefan Grimme, W. Hujo, H. Kruse, P. Pracht,  : VdW corrections, initial TS optimization,
                  C. Bannwarth, S. Ehlert          DFT functionals, gCP, sTDA/sTD-DF
   Ed Valeev, F. Pavosevic, A. Kumar             : LibInt (2-el integral package), F12 methods
   Garnet Chan, S. Sharma, J. Yang, R. Olivares  : DMRG
   Ulf Ekstrom                                   : XCFun DFT Library
   Mihaly Kallay                                 : mrcc  (arbitrary order and MRCC methods)
   Jiri Pittner, Ondrej Demel                    : Mk-CCSD
   Frank Weinhold                                : gennbo (NPA and NBO analysis)
   Christopher J. Cramer and Donald G. Truhlar   : smd solvation model
   Lars Goerigk                                  : TD-DFT with DH, B97 family of functionals
   V. Asgeirsson, H. Jonsson                     : NEB implementation
   FAccTs GmbH                                   : IRC, NEB, NEB-TS, DLPNO-Multilevel, CI-OPT
                                                   MM, QMMM, 2- and 3-layer-ONIOM, Crystal-QMMM,
                                                   LR-CPCM, SF, NACMEs, symmetry and pop. for TD-DFT,
                                                   nearIR, NL-DFT gradient (VV10), updates on ESD,
                                                   ML-optimized integration grids
   S Lehtola, MJT Oliveira, MAL Marques          : LibXC Library
   Liviu Ungur et al                             : ANISO software


 Your calculation uses the libint2 library for the computation of 2-el integrals
 For citations please refer to: http://libint.valeyev.net

 Your ORCA version has been built with support for libXC version: 5.1.0
 For citations please refer to: https://tddft.org/programs/libxc/

 This ORCA versions uses:
   CBLAS   interface :  Fast vector & matrix operations
   LAPACKE interface :  Fast linear algebra routines
   SCALAPACK package :  Parallel linear algebra routines
   Shared memory     :  Shared parallel matrices
   BLAS/LAPACK       :  OpenBLAS 0.3.15  USE64BITINT DYNAMIC_ARCH NO_AFFINITY SkylakeX SINGLE_THREADED
        Core in use  :  SkylakeX
   Copyright (c) 2011-2014, The OpenBLAS Project


================================================================================

----- Orbital basis set information -----
Your calculation utilizes the basis: EPR-III
   V. Barone, in Recent Advances in Density Functional Methods, Part 1 (ed. D. P. Chong), World Scientific, Singapore, 1995, p. 287.
   N. Rega, M. Cossi and V. Barone, J. Chem. Phys. 105, 11060 (1996).

----- AuxJ basis set information -----
Your calculation utilizes the AutoAux generation procedure.
  G. L. Stoychev, A. A. Auer, F. Neese, J. Chem. Theory Comput. 13, 554 (2017)

----- AuxC basis set information -----
Your calculation utilizes the AutoAux generation procedure.
  G. L. Stoychev, A. A. Auer, F. Neese, J. Chem. Theory Comput. 13, 554 (2017)

----- AuxJK basis set information -----
Your calculation utilizes the AutoAux generation procedure.
  G. L. Stoychev, A. A. Auer, F. Neese, J. Chem. Theory Comput. 13, 554 (2017)

================================================================================
                                        WARNINGS
                       Please study these warnings very carefully!
================================================================================


WARNING: your system is open-shell and RHF/RKS was chosen
  ===> : WILL SWITCH to UHF/UKS


INFO   : the flag for use of the SHARK integral package has been found!

================================================================================
                                       INPUT FILE
================================================================================
NAME = /home/rwth0701/scratch/cs681498/orcajob__30556608-B9pE/19991.inp
|  1> !B3LYP EPR-III Autoaux
|  2> !PAL4
|  3> 
|  4> * xyz 0 2
|  5>  C    -94.0676862616   -123.9546611336    -33.4880006357
|  6>  H    -92.9874913778   -123.6128266496    -33.4199050225
|  7>  H    -94.7970084348   -123.1271546250    -33.4748354493
|  8>  H    -94.4148038282   -124.9887282201    -33.5807511214
|  9> *
| 10> 
| 11> %EPRNMR
| 12>         GTENSOR   TRUE
| 13>         NUCLEI    = ALL H {AISO, ADIP, AORB}
| 14>         NUCLEI    = ALL C {AISO, ADIP, AORB}
| 15> END
| 16> 
| 17> 
| 18>                          ****END OF INPUT****
================================================================================

                       ****************************
                       * Single Point Calculation *
                       ****************************

---------------------------------
CARTESIAN COORDINATES (ANGSTROEM)
---------------------------------
  C    -94.067686  -123.954661  -33.488001
  H    -92.987491  -123.612827  -33.419905
  H    -94.797008  -123.127155  -33.474835
  H    -94.414804  -124.988728  -33.580751

----------------------------
CARTESIAN COORDINATES (A.U.)
----------------------------
  NO LB      ZA    FRAG     MASS         X           Y           Z
   0 C     6.0000    0    12.011  -177.762165  -234.240363  -63.283150
   1 H     1.0000    0     1.008  -175.720893  -233.594389  -63.154468
   2 H     1.0000    0     1.008  -179.140384  -232.676602  -63.258271
   3 H     1.0000    0     1.008  -178.418122  -236.194466  -63.458423

--------------------------------
INTERNAL COORDINATES (ANGSTROEM)
--------------------------------
 C      0   0   0     0.000000000000     0.00000000     0.00000000
 H      1   0   0     1.135036921856     0.00000000     0.00000000
 H      1   2   0     1.103109775240   113.73880914     0.00000000
 H      1   2   3     1.094709092418   126.25155728   178.75573179

---------------------------
INTERNAL COORDINATES (A.U.)
---------------------------
 C      0   0   0     0.000000000000     0.00000000     0.00000000
 H      1   0   0     2.144908934197     0.00000000     0.00000000
 H      1   2   0     2.084575370855   113.73880914     0.00000000
 H      1   2   3     2.068700380983   126.25155728   178.75573179

---------------------
BASIS SET INFORMATION
---------------------
There are 2 groups of distinct atoms

 Group   1 Type C   : 12s8p2d1f contracted to 8s5p2d1f pattern {51111111/41111/11/1}
 Group   2 Type H   : 7s2p contracted to 5s2p pattern {31111/11}

Atom   0C    basis set group =>   1
Atom   1H    basis set group =>   2
Atom   2H    basis set group =>   2
Atom   3H    basis set group =>   2
---------------------------------
AUXILIARY/J BASIS SET INFORMATION
---------------------------------
There are 2 groups of distinct atoms

 Group   1 Type C   : 20s17p16d8f3g contracted to 20s17p16d8f3g pattern {11111111111111111111/11111111111111111/1111111111111111/11111111/111}
 Group   2 Type H   : 17s7p3d contracted to 17s7p3d pattern {11111111111111111/1111111/111}

Atom   0C    basis set group =>   1
Atom   1H    basis set group =>   2
Atom   2H    basis set group =>   2
Atom   3H    basis set group =>   2
---------------------------------
AUXILIARY/C BASIS SET INFORMATION
---------------------------------
There are 2 groups of distinct atoms

 Group   1 Type C   : 20s17p16d8f3g contracted to 20s17p16d8f3g pattern {11111111111111111111/11111111111111111/1111111111111111/11111111/111}
 Group   2 Type H   : 17s7p3d contracted to 17s7p3d pattern {11111111111111111/1111111/111}

Atom   0C    basis set group =>   1
Atom   1H    basis set group =>   2
Atom   2H    basis set group =>   2
Atom   3H    basis set group =>   2
----------------------------------
AUXILIARY/JK BASIS SET INFORMATION
----------------------------------
There are 2 groups of distinct atoms

 Group   1 Type C   : 20s17p16d8f3g contracted to 20s17p16d8f3g pattern {11111111111111111111/11111111111111111/1111111111111111/11111111/111}
 Group   2 Type H   : 17s7p3d contracted to 17s7p3d pattern {11111111111111111/1111111/111}

Atom   0C    basis set group =>   1
Atom   1H    basis set group =>   2
Atom   2H    basis set group =>   2
Atom   3H    basis set group =>   2


           ************************************************************
           *        Program running with 4 parallel MPI-processes     *
           *              working on a common directory               *
           ************************************************************
------------------------------------------------------------------------------
                           ORCA GTO INTEGRAL CALCULATION
                           -- RI-GTO INTEGRALS CHOSEN --
------------------------------------------------------------------------------
------------------------------------------------------------------------------
                   ___                                                        
                  /   \      - P O W E R E D   B Y -                         
                 /     \                                                     
                 |  |  |   _    _      __       _____    __    __             
                 |  |  |  | |  | |    /  \     |  _  \  |  |  /  |          
                  \  \/   | |  | |   /    \    | | | |  |  | /  /          
                 / \  \   | |__| |  /  /\  \   | |_| |  |  |/  /          
                |  |  |   |  __  | /  /__\  \  |    /   |      \           
                |  |  |   | |  | | |   __   |  |    \   |  |\   \          
                \     /   | |  | | |  |  |  |  | |\  \  |  | \   \       
                 \___/    |_|  |_| |__|  |__|  |_| \__\ |__|  \__/        
                                                                              
                      - O R C A' S   B I G   F R I E N D -                    
                                      &                                       
                       - I N T E G R A L  F E E D E R -                       
                                                                              
 v1 FN, 2020, v2 2021                                                         
------------------------------------------------------------------------------


Reading SHARK input file /home/rwth0701/scratch/cs681498/orcajob__30556608-B9pE/19991.SHARKINP.tmp ... ok
----------------------
SHARK INTEGRAL PACKAGE
----------------------

Number of atoms                             ...      4
Number of basis functions                   ...     73
Number of shells                            ...     37
Maximum angular momentum                    ...      3
Integral batch strategy                     ... SHARK/LIBINT Hybrid
RI-J (if used) integral strategy            ... SPLIT-RIJ (Revised 2003 algorithm where possible)
Printlevel                                  ...      1
Contraction scheme used                     ... SEGMENTED contraction
Coulomb Range Separation                    ... NOT USED
Exchange Range Separation                   ... NOT USED
Finite Nucleus Model                        ... NOT USED
Auxiliary Coulomb fitting basis             ... AVAILABLE
   # of basis functions in Aux-J            ...    393
   # of shells in Aux-J                     ...    145
   Maximum angular momentum in Aux-J        ...      4
Auxiliary J/K fitting basis                 ... AVAILABLE
   # of basis functions in Aux-JK           ...    393
   # of shells in Aux-JK                    ...    145
   Maximum angular momentum in Aux-JK       ...      4
Auxiliary Correlation fitting basis         ... AVAILABLE
   # of basis functions in Aux-C            ...    393
   # of shells in Aux-C                     ...    145
   Maximum angular momentum in Aux-C        ...      4
Auxiliary 'external' fitting basis          ... NOT available
Integral threshold                          ...     1.000000e-10
Primitive cut-off                           ...     1.000000e-11
Primitive pair pre-selection threshold      ...     1.000000e-11

Calculating pre-screening integrals         ... done (  0.0 sec) Dimension = 37
Organizing shell pair data                  ... done (  0.0 sec)
Shell pair information
Total number of shell pairs                 ...       703
Shell pairs after pre-screening             ...       688
Total number of primitive shell pairs       ...      1300
Primitive shell pairs kept                  ...      1183
          la=0 lb=0:    261 shell pairs
          la=1 lb=0:    253 shell pairs
          la=1 lb=1:     66 shell pairs
          la=2 lb=0:     46 shell pairs
          la=2 lb=1:     22 shell pairs
          la=2 lb=2:      3 shell pairs
          la=3 lb=0:     23 shell pairs
          la=3 lb=1:     11 shell pairs
          la=3 lb=2:      2 shell pairs
          la=3 lb=3:      1 shell pairs

Calculating one electron integrals          ... done (  0.0 sec)
Calculating RI/J V-Matrix + Cholesky decomp.... done (  0.1 sec)
Calculating RI/JK V-Matrix + Cholesky decomp... done (  0.0 sec)
Calculating RI/C V-Matrix + Cholesky decomp.... done (  0.0 sec)
Calculating Nuclear repulsion               ... done (  0.0 sec) ENN=      9.402373546277 Eh

SHARK setup successfully completed in   0.6 seconds

Maximum memory used throughout the entire GTOINT-calculation: 13.7 MB


           ************************************************************
           *        Program running with 4 parallel MPI-processes     *
           *              working on a common directory               *
           ************************************************************
-------------------------------------------------------------------------------
                                 ORCA SCF
-------------------------------------------------------------------------------

------------
SCF SETTINGS
------------
Hamiltonian:
 Density Functional     Method          .... DFT(GTOs)
 Exchange Functional    Exchange        .... B88
   X-Alpha parameter    XAlpha          ....  0.666667
   Becke's b parameter  XBeta           ....  0.004200
 Correlation Functional Correlation     .... LYP
 LDA part of GGA corr.  LDAOpt          .... VWN-5
 Gradients option       PostSCFGGA      .... off
 Hybrid DFT is turned on
   Fraction HF Exchange ScalHFX         ....  0.200000
   Scaling of DF-GGA-X  ScalDFX         ....  0.720000
   Scaling of DF-GGA-C  ScalDFC         ....  0.810000
   Scaling of DF-LDA-C  ScalLDAC        ....  1.000000
   Perturbative correction              ....  0.000000
   Density functional embedding theory  .... OFF
   NL short-range parameter             ....  4.800000
 RI-approximation to the Coulomb term is turned on
   Number of AuxJ basis functions       .... 393
   RIJ-COSX (HFX calculated with COS-X)).... on


General Settings:
 Integral files         IntName         .... /home/rwth0701/scratch/cs681498/orcajob__30556608-B9pE/19991
 Hartree-Fock type      HFTyp           .... UHF
 Total Charge           Charge          ....    0
 Multiplicity           Mult            ....    2
 Number of Electrons    NEL             ....    9
 Basis Dimension        Dim             ....   73
 Nuclear Repulsion      ENuc            ....      9.4023735463 Eh

Convergence Acceleration:
 DIIS                   CNVDIIS         .... on
   Start iteration      DIISMaxIt       ....    12
   Startup error        DIISStart       ....  0.200000
   # of expansion vecs  DIISMaxEq       ....     5
   Bias factor          DIISBfac        ....   1.050
   Max. coefficient     DIISMaxC        ....  10.000
 Trust-Rad. Augm. Hess. CNVTRAH         .... auto
   Auto Start mean grad. ratio tolernc. ....  1.125000
   Auto Start start iteration           ....    20
   Auto Start num. interpolation iter.  ....    10
   Max. Number of Micro iterations      ....    16
   Max. Number of Macro iterations      .... Maxiter - #DIIS iter
   Number of Davidson start vectors     ....     2
   Converg. threshold I  (grad. norm)   ....   5.000e-05
   Converg. threshold II (energy diff.) ....   1.000e-06
   Grad. Scal. Fac. for Micro threshold ....   0.100
   Minimum threshold for Micro iter.    ....   0.010
   NR start threshold (gradient norm)   ....   0.001
   Initial trust radius                 ....   0.400
   Minimum AH scaling param. (alpha)    ....   1.000
   Maximum AH scaling param. (alpha)    .... 1000.000
   Orbital update algorithm             .... Taylor
   White noise on init. David. guess    .... on
   Maximum white noise                  ....   0.010
   Quad. conv. algorithm                .... NR
 SOSCF                  CNVSOSCF        .... off
 Level Shifting         CNVShift        .... on
   Level shift para.    LevelShift      ....    0.2500
   Turn off err/grad.   ShiftErr        ....    0.0010
 Zerner damping         CNVZerner       .... off
 Static damping         CNVDamp         .... on
   Fraction old density DampFac         ....    0.7000
   Max. Damping (<1)    DampMax         ....    0.9800
   Min. Damping (>=0)   DampMin         ....    0.0000
   Turn off err/grad.   DampErr         ....    0.1000
 Fernandez-Rico         CNVRico         .... off

SCF Procedure:
 Maximum # iterations   MaxIter         ....   125
 SCF integral mode      SCFMode         .... Direct
   Integral package                     .... SHARK and LIBINT hybrid scheme
 Reset frequency        DirectResetFreq ....    20
 Integral Threshold     Thresh          ....  1.000e-10 Eh
 Primitive CutOff       TCut            ....  1.000e-11 Eh

Convergence Tolerance:
 Convergence Check Mode ConvCheckMode   .... Total+1el-Energy
 Convergence forced     ConvForced      .... 0
 Energy Change          TolE            ....  1.000e-06 Eh
 1-El. energy change                    ....  1.000e-03 Eh
 DIIS Error             TolErr          ....  1.000e-06


Diagonalization of the overlap matrix:
Smallest eigenvalue                        ... 1.750e-03
Time for diagonalization                   ...    0.001 sec
Threshold for overlap eigenvalues          ... 1.000e-08
Number of eigenvalues below threshold      ... 0
Time for construction of square roots      ...    0.010 sec
Total time needed                          ...    0.012 sec

Time for model grid setup =    0.097 sec

------------------------------
INITIAL GUESS: MODEL POTENTIAL
------------------------------
Loading Hartree-Fock densities                     ... done
Calculating cut-offs                               ... done
Initializing the effective Hamiltonian             ... done
Setting up the integral package (SHARK)            ... done
Starting the Coulomb interaction                   ... done (   0.1 sec)
Reading the grid                                   ... done
Mapping shells                                     ... done
Starting the XC term evaluation                    ... done (   0.0 sec)
  promolecular density results
     # of electrons  =      8.998586475
     EX              =     -5.956636728
     EC              =     -0.259264776
     EX+EC           =     -6.215901504
Transforming the Hamiltonian                       ... done (   0.0 sec)
Diagonalizing the Hamiltonian                      ... done (   0.0 sec)
Back transforming the eigenvectors                 ... done (   0.0 sec)
Now organizing SCF variables                       ... done
                      ------------------
                      INITIAL GUESS DONE (   0.2 sec)
                      ------------------
-------------------
DFT GRID GENERATION
-------------------

General Integration Accuracy     IntAcc      ... 4.388
Radial Grid Type                 RadialGrid  ... OptM3 with GC (2021)
Angular Grid (max. ang.)         AngularGrid ... 4 (Lebedev-302)
Angular grid pruning method      GridPruning ... 4 (adaptive)
Weight generation scheme         WeightScheme... Becke
Basis function cutoff            BFCut       ... 1.0000e-10
Integration weight cutoff        WCut        ... 1.0000e-14
Angular grids for H and He will be reduced by one unit
Partially contracted basis set               ... off
Rotationally invariant grid construction     ... off

Total number of grid points                  ...    17050
Total number of batches                      ...      268
Average number of points per batch           ...       63
Average number of grid points per atom       ...     4262
Time for grid setup =    0.104 sec

--------------------
COSX GRID GENERATION
--------------------

GRIDX 1
-------
General Integration Accuracy     IntAcc      ... 3.816
Radial Grid Type                 RadialGrid  ... OptM3 with GC (2021)
Angular Grid (max. ang.)         AngularGrid ... 1 (Lebedev-50)
Angular grid pruning method      GridPruning ... 4 (adaptive)
Weight generation scheme         WeightScheme... Becke
Basis function cutoff            BFCut       ... 1.0000e-10
Integration weight cutoff        WCut        ... 1.0000e-14
Angular grids for H and He will be reduced by one unit
Partially contracted basis set               ... on
Rotationally invariant grid construction     ... off

Total number of grid points                  ...     2140
Total number of batches                      ...       35
Average number of points per batch           ...       61
Average number of grid points per atom       ...      535
UseSFitting                                  ... on

GRIDX 2
-------
General Integration Accuracy     IntAcc      ... 4.020
Radial Grid Type                 RadialGrid  ... OptM3 with GC (2021)
Angular Grid (max. ang.)         AngularGrid ... 2 (Lebedev-110)
Angular grid pruning method      GridPruning ... 4 (adaptive)
Weight generation scheme         WeightScheme... Becke
Basis function cutoff            BFCut       ... 1.0000e-10
Integration weight cutoff        WCut        ... 1.0000e-14
Angular grids for H and He will be reduced by one unit
Partially contracted basis set               ... on
Rotationally invariant grid construction     ... off

Total number of grid points                  ...     5060
Total number of batches                      ...       82
Average number of points per batch           ...       61
Average number of grid points per atom       ...     1265
UseSFitting                                  ... on

GRIDX 3
-------
General Integration Accuracy     IntAcc      ... 4.338
Radial Grid Type                 RadialGrid  ... OptM3 with GC (2021)
Angular Grid (max. ang.)         AngularGrid ... 3 (Lebedev-194)
Angular grid pruning method      GridPruning ... 4 (adaptive)
Weight generation scheme         WeightScheme... Becke
Basis function cutoff            BFCut       ... 1.0000e-10
Integration weight cutoff        WCut        ... 1.0000e-14
Angular grids for H and He will be reduced by one unit
Partially contracted basis set               ... on
Rotationally invariant grid construction     ... off

Total number of grid points                  ...    11714
Total number of batches                      ...      185
Average number of points per batch           ...       63
Average number of grid points per atom       ...     2928
UseSFitting                                  ... on

Time for X-Grid setup             =    0.193 sec

--------------
SCF ITERATIONS
--------------
ITER       Energy         Delta-E        Max-DP      RMS-DP      [F,P]     Damp
               ***  Starting incremental Fock matrix formation  ***
  0    -39.7880195655   0.000000000000 0.01437400  0.00047735  0.0835854 0.7000
  1    -39.8047613144  -0.016741748884 0.00903489  0.00035741  0.0438916 0.7000
                               ***Turning on DIIS***
  2    -39.8121120191  -0.007350704634 0.01641492  0.00062331  0.0180517 0.0000
  3    -39.8221840570  -0.010072037951 0.00829826  0.00027064  0.0271258 0.0000
  4    -39.8253221270  -0.003138070004 0.00292662  0.00007603  0.0055750 0.0000
  5    -39.8254490611  -0.000126934127 0.00105813  0.00003287  0.0018836 0.0000
  6    -39.8254668014  -0.000017740272 0.00089888  0.00002602  0.0008129 0.0000
               *** Restarting incremental Fock matrix formation ***
                                   *** Resetting DIIS ***
  7    -39.8254746995  -0.000007898037 0.00008016  0.00000285  0.0000867 0.0000
                 **** Energy Check signals convergence ****

               *****************************************************
               *                     SUCCESS                       *
               *           SCF CONVERGED AFTER   8 CYCLES          *
               *****************************************************

Old exchange energy                            =     -1.234214540 Eh
New exchange energy                            =     -1.234214803 Eh
Exchange energy change after final integration =     -0.000000263 Eh
Total energy after final integration           =    -39.825475039 Eh
Final COS-X integration done in                =     0.153 sec

----------------
TOTAL SCF ENERGY
----------------

Total Energy       :          -39.82547504 Eh           -1083.70627 eV

Components:
Nuclear Repulsion  :            9.40237355 Eh             255.85159 eV
Electronic Energy  :          -49.22784859 Eh           -1339.55786 eV
One Electron Energy:          -71.14784070 Eh           -1936.03117 eV
Two Electron Energy:           21.91999211 Eh             596.47331 eV
Max COSX asymmetry :            0.00000007 Eh               0.00000 eV

Virial components:
Potential Energy   :          -79.32544645 Eh           -2158.55514 eV
Kinetic Energy     :           39.49997141 Eh            1074.84887 eV
Virial Ratio       :            2.00824060


DFT components:
N(Alpha)           :        4.999999581220 electrons
N(Beta)            :        4.000000501875 electrons
N(Total)           :        9.000000083095 electrons
E(X)               :       -4.887370395681 Eh       
E(C)               :       -0.308157702534 Eh       
E(XC)              :       -5.195528098215 Eh       
DFET-embed. en.    :        0.000000000000 Eh       

---------------
SCF CONVERGENCE
---------------

  Last Energy change         ...   -7.6463e-08  Tolerance :   1.0000e-06
  Last MAX-Density change    ...    0.0000e+00  Tolerance :   1.0000e-05
  Last RMS-Density change    ...    0.0000e+00  Tolerance :   1.0000e-06
  Last DIIS Error            ...    5.9775e-05  Tolerance :   1.0000e-06

             **** THE GBW FILE WAS UPDATED (/home/rwth0701/scratch/cs681498/orcajob__30556608-B9pE/19991.gbw) ****
             **** DENSITY /home/rwth0701/scratch/cs681498/orcajob__30556608-B9pE/19991.scfp WAS UPDATED ****
             **** ENERGY FILE WAS UPDATED (/home/rwth0701/scratch/cs681498/orcajob__30556608-B9pE/19991.en.tmp) ****
----------------------
UHF SPIN CONTAMINATION
----------------------

Warning: in a DFT calculation there is little theoretical justification to 
         calculate <S**2> as in Hartree-Fock theory. We will do it anyways
         but you should keep in mind that the values have only limited relevance

Expectation value of <S**2>     :     0.753964
Ideal value S*(S+1) for S=0.5   :     0.750000
Deviation                       :     0.003964

             **** THE GBW FILE WAS UPDATED (/home/rwth0701/scratch/cs681498/orcajob__30556608-B9pE/19991.gbw) ****
             **** DENSITY /home/rwth0701/scratch/cs681498/orcajob__30556608-B9pE/19991.scfp WAS UPDATED ****
----------------
ORBITAL ENERGIES
----------------
                 SPIN UP ORBITALS
  NO   OCC          E(Eh)            E(eV) 
   0   1.0000     -10.193380      -277.3760 
   1   1.0000      -0.679548       -18.4914 
   2   1.0000      -0.426820       -11.6143 
   3   1.0000      -0.405392       -11.0313 
   4   1.0000      -0.234848        -6.3905 
   5   0.0000      -0.000192        -0.0052 
   6   0.0000       0.035393         0.9631 
   7   0.0000       0.037865         1.0304 
   8   0.0000       0.047336         1.2881 
   9   0.0000       0.081942         2.2298 
  10   0.0000       0.089553         2.4369 
  11   0.0000       0.093594         2.5468 
  12   0.0000       0.220482         5.9996 
  13   0.0000       0.225687         6.1412 
  14   0.0000       0.246841         6.7169 
  15   0.0000       0.275649         7.5008 
  16   0.0000       0.290021         7.8919 
  17   0.0000       0.308388         8.3917 
  18   0.0000       0.329426         8.9641 
  19   0.0000       0.547824        14.9071 
  20   0.0000       0.560917        15.2633 
  21   0.0000       0.740108        20.1394 
  22   0.0000       0.747172        20.3316 
  23   0.0000       0.772683        21.0258 
  24   0.0000       0.816512        22.2184 
  25   0.0000       0.870385        23.6844 
  26   0.0000       0.886339        24.1185 
  27   0.0000       0.937366        25.5070 
  28   0.0000       0.946449        25.7542 
  29   0.0000       1.053759        28.6742 
  30   0.0000       1.066519        29.0215 
  31   0.0000       1.105670        30.0868 
  32   0.0000       1.159193        31.5432 
  33   0.0000       1.161169        31.5970 
  34   0.0000       1.445110        39.3235 
  35   0.0000       1.451092        39.4862 
  36   0.0000       1.485663        40.4269 
  37   0.0000       1.700741        46.2795 
  38   0.0000       1.707605        46.4663 
  39   0.0000       1.739385        47.3311 
  40   0.0000       2.723552        74.1116 
  41   0.0000       2.736414        74.4616 
  42   0.0000       2.874397        78.2163 
  43   0.0000       2.890600        78.6572 
  44   0.0000       2.942384        80.0663 
  45   0.0000       2.964001        80.6546 
  46   0.0000       2.972256        80.8792 
  47   0.0000       3.151374        85.7533 
  48   0.0000       3.162273        86.0498 
  49   0.0000       3.252852        88.5146 
  50   0.0000       3.261133        88.7399 
  51   0.0000       3.694004       100.5189 
  52   0.0000       3.717445       101.1568 
  53   0.0000       3.770441       102.5989 
  54   0.0000       3.858881       105.0055 
  55   0.0000       3.925439       106.8166 
  56   0.0000       4.000939       108.8711 
  57   0.0000       4.076037       110.9146 
  58   0.0000       4.089257       111.2743 
  59   0.0000       4.105695       111.7216 
  60   0.0000       4.555491       123.9612 
  61   0.0000       5.004474       136.1787 
  62   0.0000       5.288972       143.9202 
  63   0.0000       5.325141       144.9045 
  64   0.0000       5.476330       149.0185 
  65   0.0000       6.022538       163.8816 
  66   0.0000       6.090982       165.7440 
  67   0.0000       7.644323       208.0126 
  68   0.0000      29.019067       789.6490 
  69   0.0000      37.053849      1008.2865 
  70   0.0000      37.191360      1012.0283 
  71   0.0000      37.207369      1012.4640 
  72   0.0000     133.465152      3631.7714 

                 SPIN DOWN ORBITALS
  NO   OCC          E(Eh)            E(eV) 
   0   1.0000     -10.178765      -276.9783 
   1   1.0000      -0.639742       -17.4083 
   2   1.0000      -0.417788       -11.3686 
   3   1.0000      -0.396127       -10.7792 
   4   0.0000      -0.077028        -2.0960 
   5   0.0000       0.003277         0.0892 
   6   0.0000       0.035097         0.9550 
   7   0.0000       0.037522         1.0210 
   8   0.0000       0.060683         1.6513 
   9   0.0000       0.084388         2.2963 
  10   0.0000       0.092584         2.5193 
  11   0.0000       0.095858         2.6084 
  12   0.0000       0.221583         6.0296 
  13   0.0000       0.227000         6.1770 
  14   0.0000       0.265323         7.2198 
  15   0.0000       0.295880         8.0513 
  16   0.0000       0.310279         8.4431 
  17   0.0000       0.313366         8.5271 
  18   0.0000       0.343188         9.3386 
  19   0.0000       0.573772        15.6131 
  20   0.0000       0.587492        15.9865 
  21   0.0000       0.741218        20.1696 
  22   0.0000       0.748533        20.3686 
  23   0.0000       0.799033        21.7428 
  24   0.0000       0.814978        22.1767 
  25   0.0000       0.873961        23.7817 
  26   0.0000       0.890499        24.2317 
  27   0.0000       0.955151        25.9910 
  28   0.0000       0.964540        26.2465 
  29   0.0000       1.079023        29.3617 
  30   0.0000       1.120714        30.4962 
  31   0.0000       1.131256        30.7830 
  32   0.0000       1.171914        31.8894 
  33   0.0000       1.173027        31.9197 
  34   0.0000       1.454082        39.5676 
  35   0.0000       1.469278        39.9811 
  36   0.0000       1.493906        40.6512 
  37   0.0000       1.707942        46.4755 
  38   0.0000       1.716836        46.7175 
  39   0.0000       1.745488        47.4972 
  40   0.0000       2.764442        75.2243 
  41   0.0000       2.777099        75.5687 
  42   0.0000       2.877548        78.3021 
  43   0.0000       2.940693        80.0203 
  44   0.0000       2.963031        80.6282 
  45   0.0000       2.983169        81.1762 
  46   0.0000       3.026111        82.3447 
  47   0.0000       3.204148        87.1893 
  48   0.0000       3.214701        87.4765 
  49   0.0000       3.311747        90.1172 
  50   0.0000       3.319733        90.3345 
  51   0.0000       3.693499       100.5052 
  52   0.0000       3.769237       102.5661 
  53   0.0000       3.776353       102.7598 
  54   0.0000       3.860215       105.0418 
  55   0.0000       3.938478       107.1714 
  56   0.0000       4.014570       109.2420 
  57   0.0000       4.078890       110.9923 
  58   0.0000       4.091978       111.3484 
  59   0.0000       4.131980       112.4369 
  60   0.0000       4.555187       123.9530 
  61   0.0000       5.026146       136.7684 
  62   0.0000       5.288524       143.9081 
  63   0.0000       5.324049       144.8747 
  64   0.0000       5.471969       148.8998 
  65   0.0000       6.024175       163.9261 
  66   0.0000       6.092920       165.7968 
  67   0.0000       7.679120       208.9595 
  68   0.0000      29.045936       790.3801 
  69   0.0000      37.041363      1007.9467 
  70   0.0000      37.178825      1011.6873 
  71   0.0000      37.195030      1012.1282 
  72   0.0000     133.473114      3631.9881 

                    ********************************
                    * MULLIKEN POPULATION ANALYSIS *
                    ********************************

--------------------------------------------
MULLIKEN ATOMIC CHARGES AND SPIN POPULATIONS
--------------------------------------------
   0 C :   -0.427985    1.109293
   1 H :    0.141371   -0.038294
   2 H :    0.137926   -0.036307
   3 H :    0.148687   -0.034691
Sum of atomic charges         :    0.0000000
Sum of atomic spin populations:    1.0000000

-----------------------------------------------------
MULLIKEN REDUCED ORBITAL CHARGES AND SPIN POPULATIONS
-----------------------------------------------------
CHARGE
  0 C s       :     3.350472  s :     3.350472
      pz      :     0.969802  p :     3.050349
      px      :     1.040022
      py      :     1.040525
      dz2     :     0.005663  d :     0.024323
      dxz     :     0.000092
      dyz     :     0.000167
      dx2y2   :     0.007786
      dxy     :     0.010616
      f0      :     0.000034  f :     0.002841
      f+1     :     0.000633
      f-1     :     0.000678
      f+2     :     0.000026
      f-2     :     0.000018
      f+3     :     0.000847
      f-3     :     0.000605
  1 H s       :     0.833581  s :     0.833581
      pz      :     0.009756  p :     0.025048
      px      :     0.008953
      py      :     0.006339
  2 H s       :     0.836138  s :     0.836138
      pz      :     0.010064  p :     0.025936
      px      :     0.007686
      py      :     0.008185
  3 H s       :     0.824227  s :     0.824227
      pz      :     0.010751  p :     0.027086
      px      :     0.006976
      py      :     0.009359

SPIN
  0 C s       :     0.067799  s :     0.067799
      pz      :     0.963023  p :     1.045788
      px      :     0.041037
      py      :     0.041727
      dz2     :    -0.004669  d :    -0.002968
      dxz     :    -0.000024
      dyz     :    -0.000068
      dx2y2   :     0.000716
      dxy     :     0.001077
      f0      :    -0.000022  f :    -0.001326
      f+1     :    -0.000599
      f-1     :    -0.000624
      f+2     :    -0.000010
      f-2     :    -0.000012
      f+3     :    -0.000035
      f-3     :    -0.000025
  1 H s       :    -0.047644  s :    -0.047644
      pz      :     0.009707  p :     0.009350
      px      :    -0.000161
      py      :    -0.000196
  2 H s       :    -0.045842  s :    -0.045842
      pz      :     0.010021  p :     0.009535
      px      :    -0.000315
      py      :    -0.000171
  3 H s       :    -0.045185  s :    -0.045185
      pz      :     0.010674  p :     0.010494
      px      :    -0.000140
      py      :    -0.000040


                     *******************************
                     * LOEWDIN POPULATION ANALYSIS *
                     *******************************

-------------------------------------------
LOEWDIN ATOMIC CHARGES AND SPIN POPULATIONS
-------------------------------------------
   0 C :   -0.176730    0.921073
   1 H :    0.069745    0.022406
   2 H :    0.054195    0.027760
   3 H :    0.052790    0.028762

----------------------------------------------------
LOEWDIN REDUCED ORBITAL CHARGES AND SPIN POPULATIONS
----------------------------------------------------
CHARGE
  0 C s       :     2.906002  s :     2.906002
      pz      :     0.883294  p :     3.173377
      px      :     1.143144
      py      :     1.146939
      dz2     :     0.006719  d :     0.090115
      dxz     :     0.000292
      dyz     :     0.000428
      dx2y2   :     0.036448
      dxy     :     0.046228
      f0      :     0.000244  f :     0.007236
      f+1     :     0.001852
      f-1     :     0.002005
      f+2     :     0.000059
      f-2     :     0.000051
      f+3     :     0.001754
      f-3     :     0.001271
  1 H s       :     0.799651  s :     0.799651
      pz      :     0.036819  p :     0.130604
      px      :     0.064372
      py      :     0.029413
  2 H s       :     0.805376  s :     0.805376
      pz      :     0.040214  p :     0.140429
      px      :     0.048168
      py      :     0.052047
  3 H s       :     0.804859  s :     0.804859
      pz      :     0.041477  p :     0.142351
      px      :     0.033717
      py      :     0.067157

SPIN
  0 C s       :     0.020888  s :     0.020888
      pz      :     0.875638  p :     0.909175
      px      :     0.016589
      py      :     0.016948
      dz2     :    -0.003975  d :    -0.007640
      dxz     :    -0.000037
      dyz     :    -0.000079
      dx2y2   :    -0.001536
      dxy     :    -0.002014
      f0      :     0.000133  f :    -0.001350
      f+1     :    -0.000564
      f-1     :    -0.000580
      f+2     :    -0.000012
      f-2     :    -0.000013
      f+3     :    -0.000181
      f-3     :    -0.000133
  1 H s       :    -0.019504  s :    -0.019504
      pz      :     0.036532  p :     0.041910
      px      :     0.004280
      py      :     0.001097
  2 H s       :    -0.017639  s :    -0.017639
      pz      :     0.040020  p :     0.045399
      px      :     0.002336
      py      :     0.003043
  3 H s       :    -0.018021  s :    -0.018021
      pz      :     0.040993  p :     0.046783
      px      :     0.001217
      py      :     0.004573


                      *****************************
                      * MAYER POPULATION ANALYSIS *
                      *****************************

  NA   - Mulliken gross atomic population
  ZA   - Total nuclear charge
  QA   - Mulliken gross atomic charge
  VA   - Mayer's total valence
  BVA  - Mayer's bonded valence
  FA   - Mayer's free valence

  ATOM       NA         ZA         QA         VA         BVA        FA
  0 C      6.4280     6.0000    -0.4280     3.8673     2.9192     0.9481
  1 H      0.8586     1.0000     0.1414     0.9819     0.9797     0.0022
  2 H      0.8621     1.0000     0.1379     0.9795     0.9775     0.0021
  3 H      0.8513     1.0000     0.1487     0.9838     0.9817     0.0020

  Mayer bond orders larger than 0.100000
B(  0-C ,  1-H ) :   0.9729 B(  0-C ,  2-H ) :   0.9742 B(  0-C ,  3-H ) :   0.9721 


-------
TIMINGS
-------

Total SCF time: 0 days 0 hours 0 min 4 sec 

Total time                  ....       4.124 sec
Sum of individual times     ....       3.614 sec  ( 87.6%)

Fock matrix formation       ....       2.993 sec  ( 72.6%)
  Split-RI-J                ....       0.355 sec  ( 11.9% of F)
  Chain of spheres X        ....       0.781 sec  ( 26.1% of F)
  XC integration            ....       1.253 sec  ( 41.8% of F)
    Basis function eval.    ....       0.100 sec  (  8.0% of XC)
    Density eval.           ....       0.104 sec  (  8.3% of XC)
    XC-Functional eval.     ....       0.099 sec  (  7.9% of XC)
    XC-Potential eval.      ....       0.140 sec  ( 11.2% of XC)
Diagonalization             ....       0.031 sec  (  0.7%)
Density matrix formation    ....       0.002 sec  (  0.0%)
Population analysis         ....       0.051 sec  (  1.2%)
Initial guess               ....       0.094 sec  (  2.3%)
Orbital Transformation      ....       0.000 sec  (  0.0%)
Orbital Orthonormalization  ....       0.000 sec  (  0.0%)
DIIS solution               ....       0.048 sec  (  1.2%)
Grid generation             ....       0.394 sec  (  9.6%)

Maximum memory used throughout the entire SCF-calculation: 59.0 MB

-------------------------   --------------------
FINAL SINGLE POINT ENERGY       -39.825475039234
-------------------------   --------------------

   --->>> g-tensor requested, so NeedSOC=true

                            ***************************************
                            *     ORCA property calculations      *
                            ***************************************

                                    ---------------------
                                    Active property flags
                                    ---------------------
   (+) Dipole Moment
   (+) g-tensor
   (+) Nuclear properties (Hyperfine,Quadrupole)
   (+) Spin-Orbit Integrals are needed


------------------------------------------------------------------------------
                       ORCA ELECTRIC PROPERTIES CALCULATION
------------------------------------------------------------------------------

Dipole Moment Calculation                       ... on
Quadrupole Moment Calculation                   ... off
Polarizability Calculation                      ... off
GBWName                                         ... /home/rwth0701/scratch/cs681498/orcajob__30556608-B9pE/19991.gbw
Electron density                                ... /home/rwth0701/scratch/cs681498/orcajob__30556608-B9pE/19991.scfp
The origin for moment calculation is the CENTER OF MASS  = (-177.761689, -234.223224 -63.284606)

-------------
DIPOLE MOMENT
-------------
                                X             Y             Z
Electronic contribution:     -0.00975      -0.09275       0.00314
Nuclear contribution   :      0.00281       0.10139      -0.00861
                        -----------------------------------------
Total Dipole Moment    :     -0.00694       0.00864      -0.00547
                        -----------------------------------------
Magnitude (a.u.)       :      0.01236
Magnitude (Debye)      :      0.03141



--------------------
Rotational spectrum 
--------------------
 
Rotational constants in cm-1:     9.737688     8.425164     4.517277 
Rotational constants in MHz : 291928.534037 252580.050632 135424.550861 

 Dipole components along the rotational axes: 
x,y,z [a.u.] :     0.001863    -0.010809    -0.005690 
x,y,z [Debye]:     0.004735    -0.027474    -0.014462 

 


           ************************************************************
           *        Program running with 4 parallel MPI-processes     *
           *              working on a common directory               *
           ************************************************************
------------------------------------------------------------------------------
                         ORCA SPIN-ORBIT COUPLING CALCULATION
------------------------------------------------------------------------------

GBW file                                    ... /home/rwth0701/scratch/cs681498/orcajob__30556608-B9pE/19991.gbw
Input density                               ... /home/rwth0701/scratch/cs681498/orcajob__30556608-B9pE/19991.scfp
Output integrals                            ... /home/rwth0701/scratch/cs681498/orcajob__30556608-B9pE/19991
Operator type                               ... Mean-field/Effective potential
   One-Electron Terms                       ... 1
   Coulomb Contribution                     ... 3
   Exchange Contribution                    ... 3
   Correlation Contribution                 ... 0
   Maximum number of centers                ... 4
SHARK 2-electron RIJ-SOMF                   ... done (  0.1 sec)
SHARK 1-electron  MaxCenter=4               ... done (  0.0 sec)
SHARK 2-electron DoJ,X=0,1 MaxCenter=1      ... done (  0.1 sec)

Maximum memory used throughout the entire SOC-calculation: 11.3 MB
Total time for SOC:  2.046


           ************************************************************
           *        Program running with 4 parallel MPI-processes     *
           *              working on a common directory               *
           ************************************************************
------------------------------------------------------------------------------
                                ORCA EPR/NMR CALCULATION
------------------------------------------------------------------------------

GBWName                      ... /home/rwth0701/scratch/cs681498/orcajob__30556608-B9pE/19991.gbw
Electron density             ... /home/rwth0701/scratch/cs681498/orcajob__30556608-B9pE/19991.scfp
Spin density                 ... /home/rwth0701/scratch/cs681498/orcajob__30556608-B9pE/19991.scfr
Spin-orbit integrals         ... /home/rwth0701/scratch/cs681498/orcajob__30556608-B9pE/19991
Treatment of gauge           ... GIAO (approximations 1/2el = 0,0)
Details of the CP(SCF) procedure:
       Solver   = POPLE   
       MaxIter  =    64   
       Tolerance=    1.000e-03
       COSX Grid=     1   
       Op-0     =   0-  4 =>   5- 72
       Op-1     =   0-  3 =>   4- 72
Multiplicity                 ... 2
g-tensor                     ... 1
NMR chemical shifts          ... 0
NMR spin-spin couplings      ... 0
NMR spectrum                 ... 0
Number of nuclei for epr/nmr ... 4
   Nucleus:   1H 
       Hyperfine : Isotope=    1 I=   0.500 P= 533.551
       Quadrupole: Isotope=    2 I=   1.000 Q=   0.003
       Spin-Orbit: Zeff=   1.000
       Nuclear Spin-Spin: Gn=   0.000
       EPRNMR Input: 
       rho(0)=N f(grad)=N a(iso)=Y a(dip)=Y a(orb)=Y sigma(nmr)=N spin-spin(nmr)=all-N,DSO-N,PSO-N,FC-N,SD-N
   Nucleus:   2H 
       Hyperfine : Isotope=    1 I=   0.500 P= 533.551
       Quadrupole: Isotope=    2 I=   1.000 Q=   0.003
       Spin-Orbit: Zeff=   1.000
       Nuclear Spin-Spin: Gn=   0.000
       EPRNMR Input: 
       rho(0)=N f(grad)=N a(iso)=Y a(dip)=Y a(orb)=Y sigma(nmr)=N spin-spin(nmr)=all-N,DSO-N,PSO-N,FC-N,SD-N
   Nucleus:   3H 
       Hyperfine : Isotope=    1 I=   0.500 P= 533.551
       Quadrupole: Isotope=    2 I=   1.000 Q=   0.003
       Spin-Orbit: Zeff=   1.000
       Nuclear Spin-Spin: Gn=   0.000
       EPRNMR Input: 
       rho(0)=N f(grad)=N a(iso)=Y a(dip)=Y a(orb)=Y sigma(nmr)=N spin-spin(nmr)=all-N,DSO-N,PSO-N,FC-N,SD-N
   Nucleus:   0C 
       Hyperfine : Isotope=   13 I=   0.500 P= 134.190
       Quadrupole: Isotope=   13 I=   0.500 Q=   0.000
       Spin-Orbit: Zeff=   3.600
       Nuclear Spin-Spin: Gn=   0.000
       EPRNMR Input: 
       rho(0)=N f(grad)=N a(iso)=Y a(dip)=Y a(orb)=Y sigma(nmr)=N spin-spin(nmr)=all-N,DSO-N,PSO-N,FC-N,SD-N
Forming RHS of the CP-SCF equations         ... 
Calculating right hand sides for GIAO treatment        ... 
  Entering RightHandSide GIAO. ScalHFX=    0.2000 NeedHFX=1
     -> 1-electron GIAO integrals will be done analytically
     -> RIJCOSX used in SCF. Same chosen for GIAO calculation.
     Making grid for GIAO integrations   ...

GRID GIAO
---------

General Integration Accuracy     IntAcc      ... 4.388
Radial Grid Type                 RadialGrid  ... OptM3 with GC (2021)
Angular Grid (max. ang.)         AngularGrid ... 4 (Lebedev-302)
Angular grid pruning method      GridPruning ... 4 (adaptive)
Weight generation scheme         WeightScheme... Becke
Basis function cutoff            BFCut       ... 1.0000e-10
Integration weight cutoff        WCut        ... 1.0000e-14
Angular grids for H and He will be reduced by one unit
Partially contracted basis set               ... off
Rotationally invariant grid construction     ... off

Total number of grid points                  ...    17050
Total number of batches                      ...      268
Average number of points per batch           ...       63
Average number of grid points per atom       ...     4262

  One-electron GIAO integrals (SHARK)     ... done
  Calculating G(B)[P]                     ... (RI-J: SHARK-ok) (COSX-ok) (add-J+K:ok) => dG/dB done
  DFT XC-terms                            ... done
  Extracting occupied and virtual blocks  ... 
  Operator  0  NO=   5 NV=  68 
  Operator  1  NO=   4 NV=  69 
  Transforming and RHS contribution       ... done
  Adding eps_i * S(B)_ai terms            ... done
  Projecting overlap derivatives          ... done
  Building G[dS/dB_ij] (COSX)             ... done
  Transforming to MO basis                ... done
  Summing G[dS/dB_ij] into RHS contribs.  ... done

  GIAO profiling information: 
    Total GIAO time               ...       0.7 sec
       GIAO 1-electron integrals  ...       0.0 sec (  1.0%)
       GIAO G(dS/dB) terms        ...       0.1 sec ( 13.7%)
       GIAO RI-J                  ...       0.1 sec ( 12.2%)
       GIAO COSX                  ...       0.1 sec ( 20.0%)
       GIAO XC-terms              ...       0.2 sec ( 36.5%)

  GIAO right hand side done


------------------------------------------------------------------------------
                           ORCA CP-SCF CALCULATION
------------------------------------------------------------------------------

Input orbitals are from        ... /home/rwth0701/scratch/cs681498/orcajob__30556608-B9pE/19991.gbw
Input Perturbation             ... /home/rwth0701/scratch/cs681498/orcajob__30556608-B9pE/19991.pin.tmp
Wavefunction output            ... /home/rwth0701/scratch/cs681498/orcajob__30556608-B9pE/19991.pout.tmp
Perturbation mode              ... Imaginary perturbation
Solver                         ... POPLE
Max. number of iterations      ... 64
Convergence tolerance          ... 1.000e-03
Integral handling              ... Direct
DFT GridXC                     ... 1
COSX GridX                     ... 1
COSX IntAccX                   ... 3.067
COSX Algorithm                 ... Auto
Number of perturbations        ... 3
Number of operators            ... 2
Orbital ranges used for CP-SCF:
 Operator 0:  Orbitals   0...  4  to   5... 72
 Operator 1:  Orbitals   0...  3  to   4... 72
Variables per perturbation     ... 616
DFT calculation                         ... on
XC functional terms                     ... off
Hybrid DFT                              ... on
   Exchange mixing (SCF)                ...  0.200
   Exchange mixing (CP-SCF)             ...  0.200
   GGA exch. scaling(SCF)               ...  0.720
   GGA exch. scaling (CP-SCF)           ...  0.720
   GGA corr. scaling (SCF)              ...  0.810
   GGA corr. scaling (CP-SCF)           ...  0.810

CP-SCF GRID
-----------

General Integration Accuracy     IntAcc      ... 3.467
Radial Grid Type                 RadialGrid  ... OptM3 with GC (2021)
Angular Grid (max. ang.)         AngularGrid ... 1 (Lebedev-50)
Angular grid pruning method      GridPruning ... 4 (adaptive)
Weight generation scheme         WeightScheme... Becke
Basis function cutoff            BFCut       ... 1.0000e-10
Integration weight cutoff        WCut        ... 1.0000e-14
Angular grids for H and He will be reduced by one unit
Partially contracted basis set               ... off
Rotationally invariant grid construction     ... off

Total number of grid points                  ...     2334
Total number of batches                      ...       38
Average number of points per batch           ...       61
Average number of grid points per atom       ...      584

CP-SCF GRIDX
------------

General Integration Accuracy     IntAcc      ... 3.067
Radial Grid Type                 RadialGrid  ... OptM3 with GC (2021)
Angular Grid (max. ang.)         AngularGrid ... 1 (Lebedev-50)
Angular grid pruning method      GridPruning ... 4 (adaptive)
Weight generation scheme         WeightScheme... Becke
Basis function cutoff            BFCut       ... 1.0000e-10
Integration weight cutoff        WCut        ... 1.0000e-14
Angular grids for H and He will be reduced by one unit
Partially contracted basis set               ... on
Rotationally invariant grid construction     ... off

Total number of grid points                  ...     1069
Total number of batches                      ...       19
Average number of points per batch           ...       56
Average number of grid points per atom       ...      267

Memory available               ... 1014.6 MB
Memory needed per perturbation ...   0.4 MB
Perturbations treated per batch... 3
Number of batches              ... 1
     CP-SCF ITERATION   0:   1.3553e+01 (   0.1 sec   0/  3 done)
     CP-SCF ITERATION   1:   1.0862e-01 (   0.1 sec   0/  3 done)
     CP-SCF ITERATION   2:   4.0913e-03 (   0.1 sec   0/  3 done)
     CP-SCF ITERATION   3:   3.3778e-04 (   0.1 sec   3/  3 done)
                    *** THE CP-SCF HAS CONVERGED ***

Forming final perturbed densities           ... done
Transforming perturbed density to AO basis  ... done

Magnetic field perturbation calculated in  1.080 sec
GIAO: Diamagnetic terms      (analytic)     (SHARK) ... done
GIAO: 1el-Paramagnetic terms (analytic)     (SHARK) ... done

-------------------
ELECTRONIC G-MATRIX
-------------------

 The g-matrix: 
              2.0028867    0.0000109    0.0000314
              0.0000134    2.0028865    0.0000454
              0.0000235    0.0000324    2.0022338

 gel          2.0023193    2.0023193    2.0023193
 gRMC        -0.0001279   -0.0001279   -0.0001279
 gDSO(tot)    0.0000344    0.0000706    0.0000709
 gPSO(tot)    0.0000045    0.0006125    0.0006398
             ----------   ----------   ----------
 g(tot)       2.0022304    2.0028746    2.0029020 iso=  2.0026690
 Delta-g     -0.0000889    0.0005553    0.0005828 iso=  0.0003497
 Orientation: 
  X          -0.0406144   -0.7192243   -0.6935899
  Y          -0.0584287    0.6946843   -0.7169378
  Z           0.9974651    0.0114075   -0.0702375

Notes:  (1) The g-matrix conforms to the "BgS" spin Hamiltonian convention. 
        (2) The principal values are square roots of the eigenvalues of g*gT.
        (3) Orientations are eigenvectors of g*gT written as column vectors.
        (4) Individual contributions are projections of the full matrices onto the eigenvectors of g*gT.
        (5) Tensor is right-handed.


-----------------------------------------
ELECTRIC AND MAGNETIC HYPERFINE STRUCTURE
-----------------------------------------

 -----------------------------------------------------------
 Nucleus   1H : A:ISTP=    1 I=  0.5 P=533.5514 MHz/au**3
                Q:ISTP=    2 I=  1.0 Q=  0.0029 barn     
 -----------------------------------------------------------
 Solving for nuclear perturbation:
Forming RHS of the CP-SCF equations         ... 
Calc. nucleus orbit integrals (SHARK)       ... done

------------------------------------------------------------------------------
                           ORCA CP-SCF CALCULATION
------------------------------------------------------------------------------

Input orbitals are from        ... /home/rwth0701/scratch/cs681498/orcajob__30556608-B9pE/19991.gbw
Input Perturbation             ... /home/rwth0701/scratch/cs681498/orcajob__30556608-B9pE/19991.pin.tmp
Wavefunction output            ... /home/rwth0701/scratch/cs681498/orcajob__30556608-B9pE/19991.pout.tmp
Perturbation mode              ... Imaginary perturbation
Solver                         ... POPLE
Max. number of iterations      ... 64
Convergence tolerance          ... 1.000e-03
Integral handling              ... Direct
DFT GridXC                     ... 1
COSX GridX                     ... 1
COSX IntAccX                   ... 3.067
COSX Algorithm                 ... Auto
Number of perturbations        ... 3
Number of operators            ... 2
Orbital ranges used for CP-SCF:
 Operator 0:  Orbitals   0...  4  to   5... 72
 Operator 1:  Orbitals   0...  3  to   4... 72
Variables per perturbation     ... 616
DFT calculation                         ... on
XC functional terms                     ... off
Hybrid DFT                              ... on
   Exchange mixing (SCF)                ...  0.200
   Exchange mixing (CP-SCF)             ...  0.200
   GGA exch. scaling(SCF)               ...  0.720
   GGA exch. scaling (CP-SCF)           ...  0.720
   GGA corr. scaling (SCF)              ...  0.810
   GGA corr. scaling (CP-SCF)           ...  0.810

CP-SCF GRID
-----------

General Integration Accuracy     IntAcc      ... 3.467
Radial Grid Type                 RadialGrid  ... OptM3 with GC (2021)
Angular Grid (max. ang.)         AngularGrid ... 1 (Lebedev-50)
Angular grid pruning method      GridPruning ... 4 (adaptive)
Weight generation scheme         WeightScheme... Becke
Basis function cutoff            BFCut       ... 1.0000e-10
Integration weight cutoff        WCut        ... 1.0000e-14
Angular grids for H and He will be reduced by one unit
Partially contracted basis set               ... off
Rotationally invariant grid construction     ... off

Total number of grid points                  ...     2334
Total number of batches                      ...       38
Average number of points per batch           ...       61
Average number of grid points per atom       ...      584

CP-SCF GRIDX
------------

General Integration Accuracy     IntAcc      ... 3.067
Radial Grid Type                 RadialGrid  ... OptM3 with GC (2021)
Angular Grid (max. ang.)         AngularGrid ... 1 (Lebedev-50)
Angular grid pruning method      GridPruning ... 4 (adaptive)
Weight generation scheme         WeightScheme... Becke
Basis function cutoff            BFCut       ... 1.0000e-10
Integration weight cutoff        WCut        ... 1.0000e-14
Angular grids for H and He will be reduced by one unit
Partially contracted basis set               ... on
Rotationally invariant grid construction     ... off

Total number of grid points                  ...     1069
Total number of batches                      ...       19
Average number of points per batch           ...       56
Average number of grid points per atom       ...      267

Memory available               ... 968.0 MB
Memory needed per perturbation ...   0.4 MB
Perturbations treated per batch... 3
Number of batches              ... 1
     CP-SCF ITERATION   0:   6.0424e-02 (   0.1 sec   0/  3 done)
     CP-SCF ITERATION   1:   2.2107e-03 (   0.1 sec   1/  3 done)
     CP-SCF ITERATION   2:   1.6949e-04 (   0.1 sec   3/  3 done)
                    *** THE CP-SCF HAS CONVERGED ***

Forming final perturbed densities           ... done
Transforming perturbed density to AO basis  ... done

 Raw HFC matrix (all values in MHz): 
 -----------------------------------
               -37.6724              21.1611               2.6782
                21.1609             -97.1788              -0.9384
                 2.6782              -0.9384             -69.0962

 A(FC)         -67.9957             -67.9957             -67.9957
 A(SD)          37.2034              -1.1501             -36.0532
 A(ORB+DIA)      0.0117              -0.0007               0.0287    A(PC) =   0.0133
 A(ORB)          0.0073               0.0004               0.0275    A(PC) =   0.0118
 A(DIA)          0.0044              -0.0011               0.0012    A(PC) =   0.0015
             ----------           ----------           ----------
 A(Tot)        -30.7807             -69.1465            -104.0202    A(iso)=  -67.9825
 Orientation: 
  X           0.9513594            0.0413930           -0.3052900
  Y           0.3023628            0.0646238            0.9509997
  Z           0.0590937           -0.9970508            0.0489647

Notes:  (1) The A matrix conforms to the "SAI" spin Hamiltonian convention.
        (2) Tensor is right-handed.

 -----------------------------------------------------------
 Nucleus   2H : A:ISTP=    1 I=  0.5 P=533.5514 MHz/au**3
                Q:ISTP=    2 I=  1.0 Q=  0.0029 barn     
 -----------------------------------------------------------
 Solving for nuclear perturbation:
Forming RHS of the CP-SCF equations         ... 
Calc. nucleus orbit integrals (SHARK)       ... done

------------------------------------------------------------------------------
                           ORCA CP-SCF CALCULATION
------------------------------------------------------------------------------

Input orbitals are from        ... /home/rwth0701/scratch/cs681498/orcajob__30556608-B9pE/19991.gbw
Input Perturbation             ... /home/rwth0701/scratch/cs681498/orcajob__30556608-B9pE/19991.pin.tmp
Wavefunction output            ... /home/rwth0701/scratch/cs681498/orcajob__30556608-B9pE/19991.pout.tmp
Perturbation mode              ... Imaginary perturbation
Solver                         ... POPLE
Max. number of iterations      ... 64
Convergence tolerance          ... 1.000e-03
Integral handling              ... Direct
DFT GridXC                     ... 1
COSX GridX                     ... 1
COSX IntAccX                   ... 3.067
COSX Algorithm                 ... Auto
Number of perturbations        ... 3
Number of operators            ... 2
Orbital ranges used for CP-SCF:
 Operator 0:  Orbitals   0...  4  to   5... 72
 Operator 1:  Orbitals   0...  3  to   4... 72
Variables per perturbation     ... 616
DFT calculation                         ... on
XC functional terms                     ... off
Hybrid DFT                              ... on
   Exchange mixing (SCF)                ...  0.200
   Exchange mixing (CP-SCF)             ...  0.200
   GGA exch. scaling(SCF)               ...  0.720
   GGA exch. scaling (CP-SCF)           ...  0.720
   GGA corr. scaling (SCF)              ...  0.810
   GGA corr. scaling (CP-SCF)           ...  0.810

CP-SCF GRID
-----------

General Integration Accuracy     IntAcc      ... 3.467
Radial Grid Type                 RadialGrid  ... OptM3 with GC (2021)
Angular Grid (max. ang.)         AngularGrid ... 1 (Lebedev-50)
Angular grid pruning method      GridPruning ... 4 (adaptive)
Weight generation scheme         WeightScheme... Becke
Basis function cutoff            BFCut       ... 1.0000e-10
Integration weight cutoff        WCut        ... 1.0000e-14
Angular grids for H and He will be reduced by one unit
Partially contracted basis set               ... off
Rotationally invariant grid construction     ... off

Total number of grid points                  ...     2334
Total number of batches                      ...       38
Average number of points per batch           ...       61
Average number of grid points per atom       ...      584

CP-SCF GRIDX
------------

General Integration Accuracy     IntAcc      ... 3.067
Radial Grid Type                 RadialGrid  ... OptM3 with GC (2021)
Angular Grid (max. ang.)         AngularGrid ... 1 (Lebedev-50)
Angular grid pruning method      GridPruning ... 4 (adaptive)
Weight generation scheme         WeightScheme... Becke
Basis function cutoff            BFCut       ... 1.0000e-10
Integration weight cutoff        WCut        ... 1.0000e-14
Angular grids for H and He will be reduced by one unit
Partially contracted basis set               ... on
Rotationally invariant grid construction     ... off

Total number of grid points                  ...     1069
Total number of batches                      ...       19
Average number of points per batch           ...       56
Average number of grid points per atom       ...      267

Memory available               ... 967.8 MB
Memory needed per perturbation ...   0.4 MB
Perturbations treated per batch... 3
Number of batches              ... 1
     CP-SCF ITERATION   0:   5.9717e-02 (   0.1 sec   0/  3 done)
     CP-SCF ITERATION   1:   2.2403e-03 (   0.1 sec   1/  3 done)
     CP-SCF ITERATION   2:   2.0489e-04 (   0.1 sec   3/  3 done)
                    *** THE CP-SCF HAS CONVERGED ***

Forming final perturbed densities           ... done
Transforming perturbed density to AO basis  ... done

 Raw HFC matrix (all values in MHz): 
 -----------------------------------
               -69.5898             -37.7882              -2.5784
               -37.7880             -59.7911              -1.7240
                -2.5784              -1.7241             -64.8533

 A(FC)         -64.7583             -64.7583             -64.7583
 A(SD)          38.1656               0.1489             -38.3146
 A(ORB+DIA)      0.0109              -0.0006               0.0305    A(PC) =   0.0136
 A(ORB)          0.0062               0.0005               0.0292    A(PC) =   0.0120
 A(DIA)          0.0047              -0.0011               0.0013    A(PC) =   0.0016
             ----------           ----------           ----------
 A(Tot)        -26.5818             -64.6100            -103.0424    A(iso)=  -64.7447
 Orientation: 
  X           0.6603706            0.0532517            0.7490493
  Y          -0.7508641            0.0609925            0.6576344
  Z          -0.0106662           -0.9967167            0.0802624

Notes:  (1) The A matrix conforms to the "SAI" spin Hamiltonian convention.
        (2) Tensor is right-handed.

 -----------------------------------------------------------
 Nucleus   3H : A:ISTP=    1 I=  0.5 P=533.5514 MHz/au**3
                Q:ISTP=    2 I=  1.0 Q=  0.0029 barn     
 -----------------------------------------------------------
 Solving for nuclear perturbation:
Forming RHS of the CP-SCF equations         ... 
Calc. nucleus orbit integrals (SHARK)       ... done

------------------------------------------------------------------------------
                           ORCA CP-SCF CALCULATION
------------------------------------------------------------------------------

Input orbitals are from        ... /home/rwth0701/scratch/cs681498/orcajob__30556608-B9pE/19991.gbw
Input Perturbation             ... /home/rwth0701/scratch/cs681498/orcajob__30556608-B9pE/19991.pin.tmp
Wavefunction output            ... /home/rwth0701/scratch/cs681498/orcajob__30556608-B9pE/19991.pout.tmp
Perturbation mode              ... Imaginary perturbation
Solver                         ... POPLE
Max. number of iterations      ... 64
Convergence tolerance          ... 1.000e-03
Integral handling              ... Direct
DFT GridXC                     ... 1
COSX GridX                     ... 1
COSX IntAccX                   ... 3.067
COSX Algorithm                 ... Auto
Number of perturbations        ... 3
Number of operators            ... 2
Orbital ranges used for CP-SCF:
 Operator 0:  Orbitals   0...  4  to   5... 72
 Operator 1:  Orbitals   0...  3  to   4... 72
Variables per perturbation     ... 616
DFT calculation                         ... on
XC functional terms                     ... off
Hybrid DFT                              ... on
   Exchange mixing (SCF)                ...  0.200
   Exchange mixing (CP-SCF)             ...  0.200
   GGA exch. scaling(SCF)               ...  0.720
   GGA exch. scaling (CP-SCF)           ...  0.720
   GGA corr. scaling (SCF)              ...  0.810
   GGA corr. scaling (CP-SCF)           ...  0.810

CP-SCF GRID
-----------

General Integration Accuracy     IntAcc      ... 3.467
Radial Grid Type                 RadialGrid  ... OptM3 with GC (2021)
Angular Grid (max. ang.)         AngularGrid ... 1 (Lebedev-50)
Angular grid pruning method      GridPruning ... 4 (adaptive)
Weight generation scheme         WeightScheme... Becke
Basis function cutoff            BFCut       ... 1.0000e-10
Integration weight cutoff        WCut        ... 1.0000e-14
Angular grids for H and He will be reduced by one unit
Partially contracted basis set               ... off
Rotationally invariant grid construction     ... off

Total number of grid points                  ...     2334
Total number of batches                      ...       38
Average number of points per batch           ...       61
Average number of grid points per atom       ...      584

CP-SCF GRIDX
------------

General Integration Accuracy     IntAcc      ... 3.067
Radial Grid Type                 RadialGrid  ... OptM3 with GC (2021)
Angular Grid (max. ang.)         AngularGrid ... 1 (Lebedev-50)
Angular grid pruning method      GridPruning ... 4 (adaptive)
Weight generation scheme         WeightScheme... Becke
Basis function cutoff            BFCut       ... 1.0000e-10
Integration weight cutoff        WCut        ... 1.0000e-14
Angular grids for H and He will be reduced by one unit
Partially contracted basis set               ... on
Rotationally invariant grid construction     ... off

Total number of grid points                  ...     1069
Total number of batches                      ...       19
Average number of points per batch           ...       56
Average number of grid points per atom       ...      267

Memory available               ... 967.7 MB
Memory needed per perturbation ...   0.4 MB
Perturbations treated per batch... 3
Number of batches              ... 1
     CP-SCF ITERATION   0:   6.8658e-02 (   0.1 sec   0/  3 done)
     CP-SCF ITERATION   1:   2.5356e-03 (   0.1 sec   1/  3 done)
     CP-SCF ITERATION   2:   1.9464e-04 (   0.1 sec   3/  3 done)
                    *** THE CP-SCF HAS CONVERGED ***

Forming final perturbed densities           ... done
Transforming perturbed density to AO basis  ... done

 Raw HFC matrix (all values in MHz): 
 -----------------------------------
               -98.4766              23.2792               0.1237
                23.2787             -37.2485               3.3695
                 0.1237               3.3696             -66.8070

 A(FC)         -67.5240             -67.5240             -67.5240
 A(SD)          38.3879               0.4634             -38.8513
 A(ORB+DIA)      0.0104              -0.0006               0.0299    A(PC) =   0.0133
 A(ORB)          0.0056               0.0006               0.0286    A(PC) =   0.0116
 A(DIA)          0.0048              -0.0011               0.0013    A(PC) =   0.0017
             ----------           ----------           ----------
 A(Tot)        -29.1257             -67.0611            -106.3453    A(iso)=  -67.5107
 Orientation: 
  X           0.3171940           -0.0503599            0.9470226
  Y           0.9444987           -0.0732522           -0.3202440
  Z           0.0854990            0.9960412            0.0243297

Notes:  (1) The A matrix conforms to the "SAI" spin Hamiltonian convention.
        (2) Tensor is right-handed.

 -----------------------------------------------------------
 Nucleus   0C : A:ISTP=   13 I=  0.5 P=134.1903 MHz/au**3
                Q:ISTP=   13 I=  0.5 Q=  0.0000 barn     
 -----------------------------------------------------------
 Solving for nuclear perturbation:
Forming RHS of the CP-SCF equations         ... 
Calc. nucleus orbit integrals (SHARK)       ... done

------------------------------------------------------------------------------
                           ORCA CP-SCF CALCULATION
------------------------------------------------------------------------------

Input orbitals are from        ... /home/rwth0701/scratch/cs681498/orcajob__30556608-B9pE/19991.gbw
Input Perturbation             ... /home/rwth0701/scratch/cs681498/orcajob__30556608-B9pE/19991.pin.tmp
Wavefunction output            ... /home/rwth0701/scratch/cs681498/orcajob__30556608-B9pE/19991.pout.tmp
Perturbation mode              ... Imaginary perturbation
Solver                         ... POPLE
Max. number of iterations      ... 64
Convergence tolerance          ... 1.000e-03
Integral handling              ... Direct
DFT GridXC                     ... 1
COSX GridX                     ... 1
COSX IntAccX                   ... 3.067
COSX Algorithm                 ... Auto
Number of perturbations        ... 3
Number of operators            ... 2
Orbital ranges used for CP-SCF:
 Operator 0:  Orbitals   0...  4  to   5... 72
 Operator 1:  Orbitals   0...  3  to   4... 72
Variables per perturbation     ... 616
DFT calculation                         ... on
XC functional terms                     ... off
Hybrid DFT                              ... on
   Exchange mixing (SCF)                ...  0.200
   Exchange mixing (CP-SCF)             ...  0.200
   GGA exch. scaling(SCF)               ...  0.720
   GGA exch. scaling (CP-SCF)           ...  0.720
   GGA corr. scaling (SCF)              ...  0.810
   GGA corr. scaling (CP-SCF)           ...  0.810

CP-SCF GRID
-----------

General Integration Accuracy     IntAcc      ... 3.467
Radial Grid Type                 RadialGrid  ... OptM3 with GC (2021)
Angular Grid (max. ang.)         AngularGrid ... 1 (Lebedev-50)
Angular grid pruning method      GridPruning ... 4 (adaptive)
Weight generation scheme         WeightScheme... Becke
Basis function cutoff            BFCut       ... 1.0000e-10
Integration weight cutoff        WCut        ... 1.0000e-14
Angular grids for H and He will be reduced by one unit
Partially contracted basis set               ... off
Rotationally invariant grid construction     ... off

Total number of grid points                  ...     2334
Total number of batches                      ...       38
Average number of points per batch           ...       61
Average number of grid points per atom       ...      584

CP-SCF GRIDX
------------

General Integration Accuracy     IntAcc      ... 3.067
Radial Grid Type                 RadialGrid  ... OptM3 with GC (2021)
Angular Grid (max. ang.)         AngularGrid ... 1 (Lebedev-50)
Angular grid pruning method      GridPruning ... 4 (adaptive)
Weight generation scheme         WeightScheme... Becke
Basis function cutoff            BFCut       ... 1.0000e-10
Integration weight cutoff        WCut        ... 1.0000e-14
Angular grids for H and He will be reduced by one unit
Partially contracted basis set               ... on
Rotationally invariant grid construction     ... off

Total number of grid points                  ...     1069
Total number of batches                      ...       19
Average number of points per batch           ...       56
Average number of grid points per atom       ...      267

Memory available               ... 967.6 MB
Memory needed per perturbation ...   0.4 MB
Perturbations treated per batch... 3
Number of batches              ... 1
     CP-SCF ITERATION   0:   1.1513e+00 (   0.1 sec   0/  3 done)
     CP-SCF ITERATION   1:   4.1291e-02 (   0.1 sec   0/  3 done)
     CP-SCF ITERATION   2:   3.1559e-03 (   0.1 sec   0/  3 done)
     CP-SCF ITERATION   3:   1.4531e-04 (   0.1 sec   3/  3 done)
                    *** THE CP-SCF HAS CONVERGED ***

Forming final perturbed densities           ... done
Transforming perturbed density to AO basis  ... done

 Raw HFC matrix (all values in MHz): 
 -----------------------------------
                10.4430               0.5803             -11.6251
                 0.5803              10.3776             -16.0952
               -11.6251             -16.0952             250.1784

 A(FC)          90.4549              90.4549              90.4549
 A(SD)         -81.0365             -80.3369             161.3734
 A(ORB+DIA)     -0.1762              -0.1762              -0.0134    A(PC) =  -0.1219
 A(ORB)         -0.1766              -0.1766              -0.0133    A(PC) =  -0.1221
 A(DIA)          0.0004               0.0004              -0.0001    A(PC) =   0.0002
             ----------           ----------           ----------
 A(Tot)          9.2422               9.9418             251.8150    A(iso)=   90.3330
 Orientation: 
  X           0.2923624            0.9550942            0.0481597
  Y           0.9531394           -0.2951200            0.0665546
  Z           0.0777788            0.0264448           -0.9966199

Notes:  (1) The A matrix conforms to the "SAI" spin Hamiltonian convention.
        (2) Tensor is right-handed.


--------------------------------------------------------------------------------
----------------------------------------------------------------------------
                           ORCA EULER ANGLE PROGRAM
----------------------------------------------------------------------------

Only g-tensor available        -->  using g-tensor as reference tensor

Reference tensor               ...  g

g-tensor ordering              ...  |g_min> --> |gx>
                                    |g_mid> --> |gy>
                                    |g_max> --> |gz>

A- and EFG-tensor ordering     ...  the axes |Ax>, |Qx>, |Ay>, etc. are assigned
                                    such that the Euler rotation is minimal. You
                                    can find the respective eigenvalues as Ax,
                                    EFGx, Ay, etc. in the tables below.
                                    The relation of |Ax>, |Ay>,  etc. to Amin, Amid, etc.
                                    (as printed in the ORCA EPR/NMR CALCULATION Output)
                                    is obtained in the detailed printout.

Euler rotation around          ...  z - y - z
   First rotation              -->  by alpha around z
   Second rotation             -->  by beta around y'
   Third rotation              -->  by gamma around z''
   Positive / Negative angle   -->  clockwise / counterclockwise rotation

Plot EFG-tensors                    (-)
Plot HFC-tensors                    (-)
Detailed Printout                   (-)

-------------------------------------------------------------------------
          Euler rotation of hyperfine tensor to g-tensor
-------------------------------------------------------------------------

-------------------------------------------------------------------
 Atom  |   Alpha    Beta    Gamma   |   Ax       Ay       Az 
       |          [degrees]         |           [MHz]         
-------------------------------------------------------------------
  1H      -89.4     28.3     89.7     -69.15  -104.02   -30.78
  2H      -82.5      4.7     82.1     -64.61   -26.58  -103.04
  3H       87.7     25.4    -87.7     -67.06  -106.35   -29.13
  0C       88.6     26.9    -88.7     251.82     9.94     9.24
-------------------------------------------------------------------


Maximum memory used throughout the entire EPRNMR-calculation: 67.6 MB

Timings for individual modules:

Sum of individual times         ...       16.138 sec (=   0.269 min)
GTO integral calculation        ...        2.932 sec (=   0.049 min)  18.2 %
Spin-Orbit-Coupling Matrices    ...        2.034 sec (=   0.034 min)  12.6 %
SCF iterations                  ...        5.776 sec (=   0.096 min)  35.8 %
EPR/NMR calculation             ...        5.396 sec (=   0.090 min)  33.4 %
                             ****ORCA TERMINATED NORMALLY****
TOTAL RUN TIME: 0 days 0 hours 0 minutes 18 seconds 712 msec
