Job execution start: Mon Oct 24 22:40:45 CEST 2022
Shared library path: /home/cs681498/orca:/opt/MPI/openmpi-4.1.1/linux/gcc_4.8.5/lib:/opt/MPI/openmpi-4.1.1/linux/gcc_4.8.5/lib/lib32
Slurm Job ID is: 30556287
Slurm Job name is: 7962
ncm0469

                                 *****************
                                 * O   R   C   A *
                                 *****************

                                            #,                                       
                                            ###                                      
                                            ####                                     
                                            #####                                    
                                            ######                                   
                                           ########,                                 
                                     ,,################,,,,,                         
                               ,,#################################,,                 
                          ,,##########################################,,             
                       ,#########################################, ''#####,          
                    ,#############################################,,   '####,        
                  ,##################################################,,,,####,       
                ,###########''''           ''''###############################       
              ,#####''   ,,,,##########,,,,          '''####'''          '####       
            ,##' ,,,,###########################,,,                        '##       
           ' ,,###''''                  '''############,,,                           
         ,,##''                                '''############,,,,        ,,,,,,###''
      ,#''                                            '''#######################'''  
     '                                                          ''''####''''         
             ,#######,   #######,   ,#######,      ##                                
            ,#'     '#,  ##    ##  ,#'     '#,    #''#        ######   ,####,        
            ##       ##  ##   ,#'  ##            #'  '#       #        #'  '#        
            ##       ##  #######   ##           ,######,      #####,   #    #        
            '#,     ,#'  ##    ##  '#,     ,#' ,#      #,         ##   #,  ,#        
             '#######'   ##     ##  '#######'  #'      '#     #####' # '####'        



                  #######################################################
                  #                        -***-                        #
                  #          Department of theory and spectroscopy      #
                  #    Directorship and core code : Frank Neese         #
                  #        Max Planck Institute fuer Kohlenforschung    #
                  #                Kaiser Wilhelm Platz 1               #
                  #                 D-45470 Muelheim/Ruhr               #
                  #                      Germany                        #
                  #                                                     #
                  #                  All rights reserved                #
                  #                        -***-                        #
                  #######################################################


                         Program Version 5.0.3 -  RELEASE  -


 With contributions from (in alphabetic order):
   Daniel Aravena         : Magnetic Suceptibility
   Michael Atanasov       : Ab Initio Ligand Field Theory (pilot matlab implementation)
   Alexander A. Auer      : GIAO ZORA, VPT2 properties, NMR spectrum
   Ute Becker             : Parallelization
   Giovanni Bistoni       : ED, misc. LED, open-shell LED, HFLD
   Martin Brehm           : Molecular dynamics
   Dmytro Bykov           : SCF Hessian
   Vijay G. Chilkuri      : MRCI spin determinant printing, contributions to CSF-ICE
   Dipayan Datta          : RHF DLPNO-CCSD density
   Achintya Kumar Dutta   : EOM-CC, STEOM-CC
   Dmitry Ganyushin       : Spin-Orbit,Spin-Spin,Magnetic field MRCI
   Miquel Garcia          : C-PCM and meta-GGA Hessian, CC/C-PCM, Gaussian charge scheme
   Yang Guo               : DLPNO-NEVPT2, F12-NEVPT2, CIM, IAO-localization
   Andreas Hansen         : Spin unrestricted coupled pair/coupled cluster methods
   Benjamin Helmich-Paris : MC-RPA, TRAH-SCF, COSX integrals
   Lee Huntington         : MR-EOM, pCC
   Robert Izsak           : Overlap fitted RIJCOSX, COSX-SCS-MP3, EOM
   Marcus Kettner         : VPT2
   Christian Kollmar      : KDIIS, OOCD, Brueckner-CCSD(T), CCSD density, CASPT2, CASPT2-K
   Simone Kossmann        : Meta GGA functionals, TD-DFT gradient, OOMP2, MP2 Hessian
   Martin Krupicka        : Initial AUTO-CI
   Lucas Lang             : DCDCAS
   Marvin Lechner         : AUTO-CI (C++ implementation), FIC-MRCC
   Dagmar Lenk            : GEPOL surface, SMD
   Dimitrios Liakos       : Extrapolation schemes; Compound Job, initial MDCI parallelization
   Dimitrios Manganas     : Further ROCIS development; embedding schemes
   Dimitrios Pantazis     : SARC Basis sets
   Anastasios Papadopoulos: AUTO-CI, single reference methods and gradients
   Taras Petrenko         : DFT Hessian,TD-DFT gradient, ASA, ECA, R-Raman, ABS, FL, XAS/XES, NRVS
   Peter Pinski           : DLPNO-MP2, DLPNO-MP2 Gradient
   Christoph Reimann      : Effective Core Potentials
   Marius Retegan         : Local ZFS, SOC
   Christoph Riplinger    : Optimizer, TS searches, QM/MM, DLPNO-CCSD(T), (RO)-DLPNO pert. Triples
   Tobias Risthaus        : Range-separated hybrids, TD-DFT gradient, RPA, STAB
   Michael Roemelt        : Original ROCIS implementation
   Masaaki Saitow         : Open-shell DLPNO-CCSD energy and density
   Barbara Sandhoefer     : DKH picture change effects
   Avijit Sen             : IP-ROCIS
   Kantharuban Sivalingam : CASSCF convergence, NEVPT2, FIC-MRCI
   Bernardo de Souza      : ESD, SOC TD-DFT
   Georgi Stoychev        : AutoAux, RI-MP2 NMR, DLPNO-MP2 response
   Willem Van den Heuvel  : Paramagnetic NMR
   Boris Wezisla          : Elementary symmetry handling
   Frank Wennmohs         : Technical directorship


 We gratefully acknowledge several colleagues who have allowed us to
 interface, adapt or use parts of their codes:
   Stefan Grimme, W. Hujo, H. Kruse, P. Pracht,  : VdW corrections, initial TS optimization,
                  C. Bannwarth, S. Ehlert          DFT functionals, gCP, sTDA/sTD-DF
   Ed Valeev, F. Pavosevic, A. Kumar             : LibInt (2-el integral package), F12 methods
   Garnet Chan, S. Sharma, J. Yang, R. Olivares  : DMRG
   Ulf Ekstrom                                   : XCFun DFT Library
   Mihaly Kallay                                 : mrcc  (arbitrary order and MRCC methods)
   Jiri Pittner, Ondrej Demel                    : Mk-CCSD
   Frank Weinhold                                : gennbo (NPA and NBO analysis)
   Christopher J. Cramer and Donald G. Truhlar   : smd solvation model
   Lars Goerigk                                  : TD-DFT with DH, B97 family of functionals
   V. Asgeirsson, H. Jonsson                     : NEB implementation
   FAccTs GmbH                                   : IRC, NEB, NEB-TS, DLPNO-Multilevel, CI-OPT
                                                   MM, QMMM, 2- and 3-layer-ONIOM, Crystal-QMMM,
                                                   LR-CPCM, SF, NACMEs, symmetry and pop. for TD-DFT,
                                                   nearIR, NL-DFT gradient (VV10), updates on ESD,
                                                   ML-optimized integration grids
   S Lehtola, MJT Oliveira, MAL Marques          : LibXC Library
   Liviu Ungur et al                             : ANISO software


 Your calculation uses the libint2 library for the computation of 2-el integrals
 For citations please refer to: http://libint.valeyev.net

 Your ORCA version has been built with support for libXC version: 5.1.0
 For citations please refer to: https://tddft.org/programs/libxc/

 This ORCA versions uses:
   CBLAS   interface :  Fast vector & matrix operations
   LAPACKE interface :  Fast linear algebra routines
   SCALAPACK package :  Parallel linear algebra routines
   Shared memory     :  Shared parallel matrices
   BLAS/LAPACK       :  OpenBLAS 0.3.15  USE64BITINT DYNAMIC_ARCH NO_AFFINITY SkylakeX SINGLE_THREADED
        Core in use  :  SkylakeX
   Copyright (c) 2011-2014, The OpenBLAS Project


================================================================================

----- Orbital basis set information -----
Your calculation utilizes the basis: EPR-III
   V. Barone, in Recent Advances in Density Functional Methods, Part 1 (ed. D. P. Chong), World Scientific, Singapore, 1995, p. 287.
   N. Rega, M. Cossi and V. Barone, J. Chem. Phys. 105, 11060 (1996).

----- AuxJ basis set information -----
Your calculation utilizes the AutoAux generation procedure.
  G. L. Stoychev, A. A. Auer, F. Neese, J. Chem. Theory Comput. 13, 554 (2017)

----- AuxC basis set information -----
Your calculation utilizes the AutoAux generation procedure.
  G. L. Stoychev, A. A. Auer, F. Neese, J. Chem. Theory Comput. 13, 554 (2017)

----- AuxJK basis set information -----
Your calculation utilizes the AutoAux generation procedure.
  G. L. Stoychev, A. A. Auer, F. Neese, J. Chem. Theory Comput. 13, 554 (2017)

================================================================================
                                        WARNINGS
                       Please study these warnings very carefully!
================================================================================


WARNING: your system is open-shell and RHF/RKS was chosen
  ===> : WILL SWITCH to UHF/UKS


INFO   : the flag for use of the SHARK integral package has been found!

================================================================================
                                       INPUT FILE
================================================================================
NAME = /home/rwth0701/scratch/cs681498/orcajob__30556287-NWM9/7962.inp
|  1> !B3LYP EPR-III Autoaux
|  2> !PAL4
|  3> 
|  4> * xyz 0 2
|  5>  C    -23.9149296975    -41.9624147638    -16.5820011414
|  6>  H    -23.4653968359    -41.0354270217    -16.5461096156
|  7>  H    -25.0031096011    -41.8924404416    -16.2310869321
|  8>  H    -23.4433731660    -42.9101398250    -16.8685376111
|  9> *
| 10> 
| 11> %EPRNMR
| 12>         GTENSOR   TRUE
| 13>         NUCLEI    = ALL H {AISO, ADIP, AORB}
| 14>         NUCLEI    = ALL C {AISO, ADIP, AORB}
| 15> END
| 16> 
| 17> 
| 18>                          ****END OF INPUT****
================================================================================

                       ****************************
                       * Single Point Calculation *
                       ****************************

---------------------------------
CARTESIAN COORDINATES (ANGSTROEM)
---------------------------------
  C    -23.914930  -41.962415  -16.582001
  H    -23.465397  -41.035427  -16.546110
  H    -25.003110  -41.892440  -16.231087
  H    -23.443373  -42.910140  -16.868538

----------------------------
CARTESIAN COORDINATES (A.U.)
----------------------------
  NO LB      ZA    FRAG     MASS         X           Y           Z
   0 C     6.0000    0    12.011  -45.192668  -79.297472  -31.335441
   1 H     1.0000    0     1.008  -44.343174  -77.545719  -31.267616
   2 H     1.0000    0     1.008  -47.249030  -79.165240  -30.672309
   3 H     1.0000    0     1.008  -44.301555  -81.088413  -31.876916

--------------------------------
INTERNAL COORDINATES (ANGSTROEM)
--------------------------------
 C      0   0   0     0.000000000000     0.00000000     0.00000000
 H      1   0   0     1.030860935959     0.00000000     0.00000000
 H      1   2   0     1.145501065322   110.40519427     0.00000000
 H      1   2   3     1.096654686989   126.77711125   182.39793446

---------------------------
INTERNAL COORDINATES (A.U.)
---------------------------
 C      0   0   0     0.000000000000     0.00000000     0.00000000
 H      1   0   0     1.948044851120     0.00000000     0.00000000
 H      1   2   0     2.164683299574   110.40519427     0.00000000
 H      1   2   3     2.072377021890   126.77711125   182.39793446

---------------------
BASIS SET INFORMATION
---------------------
There are 2 groups of distinct atoms

 Group   1 Type C   : 12s8p2d1f contracted to 8s5p2d1f pattern {51111111/41111/11/1}
 Group   2 Type H   : 7s2p contracted to 5s2p pattern {31111/11}

Atom   0C    basis set group =>   1
Atom   1H    basis set group =>   2
Atom   2H    basis set group =>   2
Atom   3H    basis set group =>   2
---------------------------------
AUXILIARY/J BASIS SET INFORMATION
---------------------------------
There are 2 groups of distinct atoms

 Group   1 Type C   : 20s17p16d8f3g contracted to 20s17p16d8f3g pattern {11111111111111111111/11111111111111111/1111111111111111/11111111/111}
 Group   2 Type H   : 17s7p3d contracted to 17s7p3d pattern {11111111111111111/1111111/111}

Atom   0C    basis set group =>   1
Atom   1H    basis set group =>   2
Atom   2H    basis set group =>   2
Atom   3H    basis set group =>   2
---------------------------------
AUXILIARY/C BASIS SET INFORMATION
---------------------------------
There are 2 groups of distinct atoms

 Group   1 Type C   : 20s17p16d8f3g contracted to 20s17p16d8f3g pattern {11111111111111111111/11111111111111111/1111111111111111/11111111/111}
 Group   2 Type H   : 17s7p3d contracted to 17s7p3d pattern {11111111111111111/1111111/111}

Atom   0C    basis set group =>   1
Atom   1H    basis set group =>   2
Atom   2H    basis set group =>   2
Atom   3H    basis set group =>   2
----------------------------------
AUXILIARY/JK BASIS SET INFORMATION
----------------------------------
There are 2 groups of distinct atoms

 Group   1 Type C   : 20s17p16d8f3g contracted to 20s17p16d8f3g pattern {11111111111111111111/11111111111111111/1111111111111111/11111111/111}
 Group   2 Type H   : 17s7p3d contracted to 17s7p3d pattern {11111111111111111/1111111/111}

Atom   0C    basis set group =>   1
Atom   1H    basis set group =>   2
Atom   2H    basis set group =>   2
Atom   3H    basis set group =>   2


           ************************************************************
           *        Program running with 4 parallel MPI-processes     *
           *              working on a common directory               *
           ************************************************************
------------------------------------------------------------------------------
                           ORCA GTO INTEGRAL CALCULATION
                           -- RI-GTO INTEGRALS CHOSEN --
------------------------------------------------------------------------------
------------------------------------------------------------------------------
                   ___                                                        
                  /   \      - P O W E R E D   B Y -                         
                 /     \                                                     
                 |  |  |   _    _      __       _____    __    __             
                 |  |  |  | |  | |    /  \     |  _  \  |  |  /  |          
                  \  \/   | |  | |   /    \    | | | |  |  | /  /          
                 / \  \   | |__| |  /  /\  \   | |_| |  |  |/  /          
                |  |  |   |  __  | /  /__\  \  |    /   |      \           
                |  |  |   | |  | | |   __   |  |    \   |  |\   \          
                \     /   | |  | | |  |  |  |  | |\  \  |  | \   \       
                 \___/    |_|  |_| |__|  |__|  |_| \__\ |__|  \__/        
                                                                              
                      - O R C A' S   B I G   F R I E N D -                    
                                      &                                       
                       - I N T E G R A L  F E E D E R -                       
                                                                              
 v1 FN, 2020, v2 2021                                                         
------------------------------------------------------------------------------


Reading SHARK input file /home/rwth0701/scratch/cs681498/orcajob__30556287-NWM9/7962.SHARKINP.tmp ... ok
----------------------
SHARK INTEGRAL PACKAGE
----------------------

Number of atoms                             ...      4
Number of basis functions                   ...     73
Number of shells                            ...     37
Maximum angular momentum                    ...      3
Integral batch strategy                     ... SHARK/LIBINT Hybrid
RI-J (if used) integral strategy            ... SPLIT-RIJ (Revised 2003 algorithm where possible)
Printlevel                                  ...      1
Contraction scheme used                     ... SEGMENTED contraction
Coulomb Range Separation                    ... NOT USED
Exchange Range Separation                   ... NOT USED
Finite Nucleus Model                        ... NOT USED
Auxiliary Coulomb fitting basis             ... AVAILABLE
   # of basis functions in Aux-J            ...    393
   # of shells in Aux-J                     ...    145
   Maximum angular momentum in Aux-J        ...      4
Auxiliary J/K fitting basis                 ... AVAILABLE
   # of basis functions in Aux-JK           ...    393
   # of shells in Aux-JK                    ...    145
   Maximum angular momentum in Aux-JK       ...      4
Auxiliary Correlation fitting basis         ... AVAILABLE
   # of basis functions in Aux-C            ...    393
   # of shells in Aux-C                     ...    145
   Maximum angular momentum in Aux-C        ...      4
Auxiliary 'external' fitting basis          ... NOT available
Integral threshold                          ...     1.000000e-10
Primitive cut-off                           ...     1.000000e-11
Primitive pair pre-selection threshold      ...     1.000000e-11

Calculating pre-screening integrals         ... done (  0.0 sec) Dimension = 37
Organizing shell pair data                  ... done (  0.1 sec)
Shell pair information
Total number of shell pairs                 ...       703
Shell pairs after pre-screening             ...       688
Total number of primitive shell pairs       ...      1300
Primitive shell pairs kept                  ...      1183
          la=0 lb=0:    261 shell pairs
          la=1 lb=0:    253 shell pairs
          la=1 lb=1:     66 shell pairs
          la=2 lb=0:     46 shell pairs
          la=2 lb=1:     22 shell pairs
          la=2 lb=2:      3 shell pairs
          la=3 lb=0:     23 shell pairs
          la=3 lb=1:     11 shell pairs
          la=3 lb=2:      2 shell pairs
          la=3 lb=3:      1 shell pairs

Calculating one electron integrals          ... done (  0.0 sec)
Calculating RI/J V-Matrix + Cholesky decomp.... done (  0.2 sec)
Calculating RI/JK V-Matrix + Cholesky decomp... done (  0.2 sec)
Calculating RI/C V-Matrix + Cholesky decomp.... done (  0.2 sec)
Calculating Nuclear repulsion               ... done (  0.0 sec) ENN=      9.589900448406 Eh

SHARK setup successfully completed in   1.2 seconds

Maximum memory used throughout the entire GTOINT-calculation: 13.7 MB


           ************************************************************
           *        Program running with 4 parallel MPI-processes     *
           *              working on a common directory               *
           ************************************************************
-------------------------------------------------------------------------------
                                 ORCA SCF
-------------------------------------------------------------------------------

------------
SCF SETTINGS
------------
Hamiltonian:
 Density Functional     Method          .... DFT(GTOs)
 Exchange Functional    Exchange        .... B88
   X-Alpha parameter    XAlpha          ....  0.666667
   Becke's b parameter  XBeta           ....  0.004200
 Correlation Functional Correlation     .... LYP
 LDA part of GGA corr.  LDAOpt          .... VWN-5
 Gradients option       PostSCFGGA      .... off
 Hybrid DFT is turned on
   Fraction HF Exchange ScalHFX         ....  0.200000
   Scaling of DF-GGA-X  ScalDFX         ....  0.720000
   Scaling of DF-GGA-C  ScalDFC         ....  0.810000
   Scaling of DF-LDA-C  ScalLDAC        ....  1.000000
   Perturbative correction              ....  0.000000
   Density functional embedding theory  .... OFF
   NL short-range parameter             ....  4.800000
 RI-approximation to the Coulomb term is turned on
   Number of AuxJ basis functions       .... 393
   RIJ-COSX (HFX calculated with COS-X)).... on


General Settings:
 Integral files         IntName         .... /home/rwth0701/scratch/cs681498/orcajob__30556287-NWM9/7962
 Hartree-Fock type      HFTyp           .... UHF
 Total Charge           Charge          ....    0
 Multiplicity           Mult            ....    2
 Number of Electrons    NEL             ....    9
 Basis Dimension        Dim             ....   73
 Nuclear Repulsion      ENuc            ....      9.5899004484 Eh

Convergence Acceleration:
 DIIS                   CNVDIIS         .... on
   Start iteration      DIISMaxIt       ....    12
   Startup error        DIISStart       ....  0.200000
   # of expansion vecs  DIISMaxEq       ....     5
   Bias factor          DIISBfac        ....   1.050
   Max. coefficient     DIISMaxC        ....  10.000
 Trust-Rad. Augm. Hess. CNVTRAH         .... auto
   Auto Start mean grad. ratio tolernc. ....  1.125000
   Auto Start start iteration           ....    20
   Auto Start num. interpolation iter.  ....    10
   Max. Number of Micro iterations      ....    16
   Max. Number of Macro iterations      .... Maxiter - #DIIS iter
   Number of Davidson start vectors     ....     2
   Converg. threshold I  (grad. norm)   ....   5.000e-05
   Converg. threshold II (energy diff.) ....   1.000e-06
   Grad. Scal. Fac. for Micro threshold ....   0.100
   Minimum threshold for Micro iter.    ....   0.010
   NR start threshold (gradient norm)   ....   0.001
   Initial trust radius                 ....   0.400
   Minimum AH scaling param. (alpha)    ....   1.000
   Maximum AH scaling param. (alpha)    .... 1000.000
   Orbital update algorithm             .... Taylor
   White noise on init. David. guess    .... on
   Maximum white noise                  ....   0.010
   Quad. conv. algorithm                .... NR
 SOSCF                  CNVSOSCF        .... off
 Level Shifting         CNVShift        .... on
   Level shift para.    LevelShift      ....    0.2500
   Turn off err/grad.   ShiftErr        ....    0.0010
 Zerner damping         CNVZerner       .... off
 Static damping         CNVDamp         .... on
   Fraction old density DampFac         ....    0.7000
   Max. Damping (<1)    DampMax         ....    0.9800
   Min. Damping (>=0)   DampMin         ....    0.0000
   Turn off err/grad.   DampErr         ....    0.1000
 Fernandez-Rico         CNVRico         .... off

SCF Procedure:
 Maximum # iterations   MaxIter         ....   125
 SCF integral mode      SCFMode         .... Direct
   Integral package                     .... SHARK and LIBINT hybrid scheme
 Reset frequency        DirectResetFreq ....    20
 Integral Threshold     Thresh          ....  1.000e-10 Eh
 Primitive CutOff       TCut            ....  1.000e-11 Eh

Convergence Tolerance:
 Convergence Check Mode ConvCheckMode   .... Total+1el-Energy
 Convergence forced     ConvForced      .... 0
 Energy Change          TolE            ....  1.000e-06 Eh
 1-El. energy change                    ....  1.000e-03 Eh
 DIIS Error             TolErr          ....  1.000e-06


Diagonalization of the overlap matrix:
Smallest eigenvalue                        ... 1.602e-03
Time for diagonalization                   ...    0.001 sec
Threshold for overlap eigenvalues          ... 1.000e-08
Number of eigenvalues below threshold      ... 0
Time for construction of square roots      ...    0.010 sec
Total time needed                          ...    0.012 sec

Time for model grid setup =    0.120 sec

------------------------------
INITIAL GUESS: MODEL POTENTIAL
------------------------------
Loading Hartree-Fock densities                     ... done
Calculating cut-offs                               ... done
Initializing the effective Hamiltonian             ... done
Setting up the integral package (SHARK)            ... done
Starting the Coulomb interaction                   ... done (   0.1 sec)
Reading the grid                                   ... done
Mapping shells                                     ... done
Starting the XC term evaluation                    ... done (   0.0 sec)
  promolecular density results
     # of electrons  =      8.998505286
     EX              =     -5.966350245
     EC              =     -0.259995790
     EX+EC           =     -6.226346034
Transforming the Hamiltonian                       ... done (   0.0 sec)
Diagonalizing the Hamiltonian                      ... done (   0.0 sec)
Back transforming the eigenvectors                 ... done (   0.0 sec)
Now organizing SCF variables                       ... done
                      ------------------
                      INITIAL GUESS DONE (   0.3 sec)
                      ------------------
-------------------
DFT GRID GENERATION
-------------------

General Integration Accuracy     IntAcc      ... 4.388
Radial Grid Type                 RadialGrid  ... OptM3 with GC (2021)
Angular Grid (max. ang.)         AngularGrid ... 4 (Lebedev-302)
Angular grid pruning method      GridPruning ... 4 (adaptive)
Weight generation scheme         WeightScheme... Becke
Basis function cutoff            BFCut       ... 1.0000e-10
Integration weight cutoff        WCut        ... 1.0000e-14
Angular grids for H and He will be reduced by one unit
Partially contracted basis set               ... off
Rotationally invariant grid construction     ... off

Total number of grid points                  ...    17056
Total number of batches                      ...      269
Average number of points per batch           ...       63
Average number of grid points per atom       ...     4264
Time for grid setup =    0.302 sec

--------------------
COSX GRID GENERATION
--------------------

GRIDX 1
-------
General Integration Accuracy     IntAcc      ... 3.816
Radial Grid Type                 RadialGrid  ... OptM3 with GC (2021)
Angular Grid (max. ang.)         AngularGrid ... 1 (Lebedev-50)
Angular grid pruning method      GridPruning ... 4 (adaptive)
Weight generation scheme         WeightScheme... Becke
Basis function cutoff            BFCut       ... 1.0000e-10
Integration weight cutoff        WCut        ... 1.0000e-14
Angular grids for H and He will be reduced by one unit
Partially contracted basis set               ... on
Rotationally invariant grid construction     ... off

Total number of grid points                  ...     2154
Total number of batches                      ...       35
Average number of points per batch           ...       61
Average number of grid points per atom       ...      538
UseSFitting                                  ... on

GRIDX 2
-------
General Integration Accuracy     IntAcc      ... 4.020
Radial Grid Type                 RadialGrid  ... OptM3 with GC (2021)
Angular Grid (max. ang.)         AngularGrid ... 2 (Lebedev-110)
Angular grid pruning method      GridPruning ... 4 (adaptive)
Weight generation scheme         WeightScheme... Becke
Basis function cutoff            BFCut       ... 1.0000e-10
Integration weight cutoff        WCut        ... 1.0000e-14
Angular grids for H and He will be reduced by one unit
Partially contracted basis set               ... on
Rotationally invariant grid construction     ... off

Total number of grid points                  ...     5057
Total number of batches                      ...       81
Average number of points per batch           ...       62
Average number of grid points per atom       ...     1264
UseSFitting                                  ... on

GRIDX 3
-------
General Integration Accuracy     IntAcc      ... 4.338
Radial Grid Type                 RadialGrid  ... OptM3 with GC (2021)
Angular Grid (max. ang.)         AngularGrid ... 3 (Lebedev-194)
Angular grid pruning method      GridPruning ... 4 (adaptive)
Weight generation scheme         WeightScheme... Becke
Basis function cutoff            BFCut       ... 1.0000e-10
Integration weight cutoff        WCut        ... 1.0000e-14
Angular grids for H and He will be reduced by one unit
Partially contracted basis set               ... on
Rotationally invariant grid construction     ... off

Total number of grid points                  ...    11730
Total number of batches                      ...      185
Average number of points per batch           ...       63
Average number of grid points per atom       ...     2932
UseSFitting                                  ... on

Time for X-Grid setup             =    0.418 sec

--------------
SCF ITERATIONS
--------------
ITER       Energy         Delta-E        Max-DP      RMS-DP      [F,P]     Damp
               ***  Starting incremental Fock matrix formation  ***
  0    -39.7810602886   0.000000000000 0.01507131  0.00049570  0.0879878 0.7000
  1    -39.7995833652  -0.018523076574 0.00941732  0.00037031  0.0455956 0.7000
                               ***Turning on DIIS***
  2    -39.8077613186  -0.008177953418 0.01603732  0.00064566  0.0182482 0.0000
  3    -39.8189190148  -0.011157696222 0.00780131  0.00027961  0.0277461 0.0000
  4    -39.8223605095  -0.003441494705 0.00272211  0.00007821  0.0056229 0.0000
  5    -39.8225011271  -0.000140617554 0.00098908  0.00003287  0.0018332 0.0000
  6    -39.8225192520  -0.000018124924 0.00081102  0.00002564  0.0007593 0.0000
               *** Restarting incremental Fock matrix formation ***
                                   *** Resetting DIIS ***
  7    -39.8225165082   0.000002743762 0.00010040  0.00000294  0.0000942 0.0000
                 **** Energy Check signals convergence ****

               *****************************************************
               *                     SUCCESS                       *
               *           SCF CONVERGED AFTER   8 CYCLES          *
               *****************************************************

Old exchange energy                            =     -1.238938377 Eh
New exchange energy                            =     -1.238937382 Eh
Exchange energy change after final integration =      0.000000995 Eh
Total energy after final integration           =    -39.822515601 Eh
Final COS-X integration done in                =     0.200 sec

----------------
TOTAL SCF ENERGY
----------------

Total Energy       :          -39.82251560 Eh           -1083.62574 eV

Components:
Nuclear Repulsion  :            9.58990045 Eh             260.95446 eV
Electronic Energy  :          -49.41241605 Eh           -1344.58020 eV
One Electron Energy:          -71.48640701 Eh           -1945.24403 eV
Two Electron Energy:           22.07399096 Eh             600.66383 eV
Max COSX asymmetry :            0.00000004 Eh               0.00000 eV

Virial components:
Potential Energy   :          -79.41217777 Eh           -2160.91522 eV
Kinetic Energy     :           39.58966217 Eh            1077.28948 eV
Virial Ratio       :            2.00588167


DFT components:
N(Alpha)           :        4.999999380792 electrons
N(Beta)            :        4.000000113485 electrons
N(Total)           :        8.999999494278 electrons
E(X)               :       -4.904683440883 Eh       
E(C)               :       -0.309165619850 Eh       
E(XC)              :       -5.213849060733 Eh       
DFET-embed. en.    :        0.000000000000 Eh       

---------------
SCF CONVERGENCE
---------------

  Last Energy change         ...   -8.7481e-08  Tolerance :   1.0000e-06
  Last MAX-Density change    ...    0.0000e+00  Tolerance :   1.0000e-05
  Last RMS-Density change    ...    0.0000e+00  Tolerance :   1.0000e-06
  Last DIIS Error            ...    6.0008e-05  Tolerance :   1.0000e-06

             **** THE GBW FILE WAS UPDATED (/home/rwth0701/scratch/cs681498/orcajob__30556287-NWM9/7962.gbw) ****
             **** DENSITY /home/rwth0701/scratch/cs681498/orcajob__30556287-NWM9/7962.scfp WAS UPDATED ****
             **** ENERGY FILE WAS UPDATED (/home/rwth0701/scratch/cs681498/orcajob__30556287-NWM9/7962.en.tmp) ****
----------------------
UHF SPIN CONTAMINATION
----------------------

Warning: in a DFT calculation there is little theoretical justification to 
         calculate <S**2> as in Hartree-Fock theory. We will do it anyways
         but you should keep in mind that the values have only limited relevance

Expectation value of <S**2>     :     0.753782
Ideal value S*(S+1) for S=0.5   :     0.750000
Deviation                       :     0.003782

             **** THE GBW FILE WAS UPDATED (/home/rwth0701/scratch/cs681498/orcajob__30556287-NWM9/7962.gbw) ****
             **** DENSITY /home/rwth0701/scratch/cs681498/orcajob__30556287-NWM9/7962.scfp WAS UPDATED ****
----------------
ORBITAL ENERGIES
----------------
                 SPIN UP ORBITALS
  NO   OCC          E(Eh)            E(eV) 
   0   1.0000     -10.187358      -277.2121 
   1   1.0000      -0.686285       -18.6748 
   2   1.0000      -0.437495       -11.9048 
   3   1.0000      -0.402838       -10.9618 
   4   1.0000      -0.235031        -6.3955 
   5   0.0000       0.000400         0.0109 
   6   0.0000       0.035003         0.9525 
   7   0.0000       0.038267         1.0413 
   8   0.0000       0.047411         1.2901 
   9   0.0000       0.083798         2.2803 
  10   0.0000       0.087815         2.3896 
  11   0.0000       0.101281         2.7560 
  12   0.0000       0.219550         5.9743 
  13   0.0000       0.224832         6.1180 
  14   0.0000       0.246595         6.7102 
  15   0.0000       0.275934         7.5085 
  16   0.0000       0.289045         7.8653 
  17   0.0000       0.314239         8.5509 
  18   0.0000       0.348275         9.4770 
  19   0.0000       0.547387        14.8952 
  20   0.0000       0.567472        15.4417 
  21   0.0000       0.733881        19.9699 
  22   0.0000       0.745318        20.2811 
  23   0.0000       0.771503        20.9937 
  24   0.0000       0.821990        22.3675 
  25   0.0000       0.870444        23.6860 
  26   0.0000       0.910720        24.7820 
  27   0.0000       0.942874        25.6569 
  28   0.0000       0.955115        25.9900 
  29   0.0000       1.051892        28.6234 
  30   0.0000       1.061991        28.8982 
  31   0.0000       1.126188        30.6451 
  32   0.0000       1.160782        31.5865 
  33   0.0000       1.168333        31.7919 
  34   0.0000       1.438709        39.1493 
  35   0.0000       1.473221        40.0884 
  36   0.0000       1.499360        40.7997 
  37   0.0000       1.686406        45.8894 
  38   0.0000       1.751584        47.6630 
  39   0.0000       1.762803        47.9683 
  40   0.0000       2.711670        73.7883 
  41   0.0000       2.741205        74.5920 
  42   0.0000       2.871566        78.1393 
  43   0.0000       2.892355        78.7050 
  44   0.0000       2.909166        79.1624 
  45   0.0000       2.980826        81.1124 
  46   0.0000       3.005836        81.7930 
  47   0.0000       3.147104        85.6370 
  48   0.0000       3.172346        86.3239 
  49   0.0000       3.248866        88.4061 
  50   0.0000       3.265727        88.8650 
  51   0.0000       3.714892       101.0874 
  52   0.0000       3.719638       101.2165 
  53   0.0000       3.745846       101.9297 
  54   0.0000       3.904439       106.2452 
  55   0.0000       3.932313       107.0037 
  56   0.0000       4.024449       109.5108 
  57   0.0000       4.122069       112.1672 
  58   0.0000       4.176806       113.6567 
  59   0.0000       4.187620       113.9509 
  60   0.0000       4.602183       125.2318 
  61   0.0000       5.006504       136.2339 
  62   0.0000       5.271919       143.4562 
  63   0.0000       5.448606       148.2641 
  64   0.0000       5.582972       151.9204 
  65   0.0000       6.007510       163.4727 
  66   0.0000       6.160519       167.6362 
  67   0.0000       7.725319       210.2166 
  68   0.0000      29.059365       790.7455 
  69   0.0000      37.079429      1008.9826 
  70   0.0000      37.209512      1012.5223 
  71   0.0000      37.251523      1013.6655 
  72   0.0000     133.514911      3633.1254 

                 SPIN DOWN ORBITALS
  NO   OCC          E(Eh)            E(eV) 
   0   1.0000     -10.172849      -276.8173 
   1   1.0000      -0.646772       -17.5996 
   2   1.0000      -0.428034       -11.6474 
   3   1.0000      -0.393490       -10.7074 
   4   0.0000      -0.077374        -2.1054 
   5   0.0000       0.003668         0.0998 
   6   0.0000       0.034684         0.9438 
   7   0.0000       0.037903         1.0314 
   8   0.0000       0.060684         1.6513 
   9   0.0000       0.085910         2.3377 
  10   0.0000       0.090892         2.4733 
  11   0.0000       0.103214         2.8086 
  12   0.0000       0.220642         6.0040 
  13   0.0000       0.226482         6.1629 
  14   0.0000       0.265267         7.2183 
  15   0.0000       0.294458         8.0126 
  16   0.0000       0.310387         8.4461 
  17   0.0000       0.321396         8.7456 
  18   0.0000       0.359944         9.7946 
  19   0.0000       0.573419        15.6035 
  20   0.0000       0.595031        16.1916 
  21   0.0000       0.736262        20.0347 
  22   0.0000       0.747093        20.3294 
  23   0.0000       0.795751        21.6535 
  24   0.0000       0.820409        22.3245 
  25   0.0000       0.876327        23.8461 
  26   0.0000       0.916768        24.9465 
  27   0.0000       0.958067        26.0703 
  28   0.0000       0.973749        26.4971 
  29   0.0000       1.073795        29.2194 
  30   0.0000       1.120714        30.4962 
  31   0.0000       1.149352        31.2754 
  32   0.0000       1.173466        31.9316 
  33   0.0000       1.180549        32.1244 
  34   0.0000       1.452234        39.5173 
  35   0.0000       1.485559        40.4241 
  36   0.0000       1.510226        41.0953 
  37   0.0000       1.694864        46.1196 
  38   0.0000       1.757431        47.8221 
  39   0.0000       1.770917        48.1891 
  40   0.0000       2.752667        74.9039 
  41   0.0000       2.782104        75.7049 
  42   0.0000       2.874812        78.2276 
  43   0.0000       2.908951        79.1566 
  44   0.0000       2.967333        80.7452 
  45   0.0000       3.020431        82.1901 
  46   0.0000       3.035250        82.5934 
  47   0.0000       3.199545        87.0640 
  48   0.0000       3.222825        87.6975 
  49   0.0000       3.304682        89.9250 
  50   0.0000       3.324198        90.4560 
  51   0.0000       3.717131       101.1483 
  52   0.0000       3.745759       101.9273 
  53   0.0000       3.777109       102.7804 
  54   0.0000       3.904034       106.2342 
  55   0.0000       3.946687       107.3948 
  56   0.0000       4.042228       109.9946 
  57   0.0000       4.125940       112.2725 
  58   0.0000       4.190234       114.0221 
  59   0.0000       4.200660       114.3058 
  60   0.0000       4.602583       125.2427 
  61   0.0000       5.026108       136.7674 
  62   0.0000       5.272702       143.4775 
  63   0.0000       5.445895       148.1903 
  64   0.0000       5.581150       151.8708 
  65   0.0000       6.009480       163.5263 
  66   0.0000       6.163831       167.7264 
  67   0.0000       7.760466       211.1730 
  68   0.0000      29.086243       791.4769 
  69   0.0000      37.066868      1008.6407 
  70   0.0000      37.196897      1012.1790 
  71   0.0000      37.240540      1013.3666 
  72   0.0000     133.522814      3633.3405 

                    ********************************
                    * MULLIKEN POPULATION ANALYSIS *
                    ********************************

--------------------------------------------
MULLIKEN ATOMIC CHARGES AND SPIN POPULATIONS
--------------------------------------------
   0 C :   -0.429236    1.106076
   1 H :    0.147224   -0.032145
   2 H :    0.132024   -0.039418
   3 H :    0.149988   -0.034514
Sum of atomic charges         :    0.0000000
Sum of atomic spin populations:    1.0000000

-----------------------------------------------------
MULLIKEN REDUCED ORBITAL CHARGES AND SPIN POPULATIONS
-----------------------------------------------------
CHARGE
  0 C s       :     3.336830  s :     3.336830
      pz      :     0.975737  p :     3.064937
      px      :     1.040279
      py      :     1.048921
      dz2     :     0.004168  d :     0.024456
      dxz     :     0.002479
      dyz     :     0.001145
      dx2y2   :     0.009586
      dxy     :     0.007078
      f0      :     0.000343  f :     0.003014
      f+1     :     0.000267
      f-1     :     0.000543
      f+2     :     0.000324
      f-2     :     0.000180
      f+3     :     0.001288
      f-3     :     0.000069
  1 H s       :     0.823517  s :     0.823517
      pz      :     0.011064  p :     0.029258
      px      :     0.008334
      py      :     0.009861
  2 H s       :     0.843903  s :     0.843903
      pz      :     0.009284  p :     0.024073
      px      :     0.009075
      py      :     0.005715
  3 H s       :     0.823025  s :     0.823025
      pz      :     0.010559  p :     0.026986
      px      :     0.007481
      py      :     0.008946

SPIN
  0 C s       :     0.067827  s :     0.067827
      pz      :     0.870566  p :     1.042581
      px      :     0.112846
      py      :     0.059169
      dz2     :    -0.003345  d :    -0.002997
      dxz     :    -0.000860
      dyz     :    -0.000346
      dx2y2   :     0.000909
      dxy     :     0.000644
      f0      :    -0.000300  f :    -0.001335
      f+1     :    -0.000245
      f-1     :    -0.000450
      f+2     :    -0.000161
      f-2     :    -0.000120
      f+3     :    -0.000061
      f-3     :     0.000001
  1 H s       :    -0.042943  s :    -0.042943
      pz      :     0.010194  p :     0.010798
      px      :     0.000399
      py      :     0.000205
  2 H s       :    -0.048189  s :    -0.048189
      pz      :     0.008288  p :     0.008772
      px      :     0.000596
      py      :    -0.000113
  3 H s       :    -0.045104  s :    -0.045104
      pz      :     0.009673  p :     0.010590
      px      :     0.000717
      py      :     0.000200


                     *******************************
                     * LOEWDIN POPULATION ANALYSIS *
                     *******************************

-------------------------------------------
LOEWDIN ATOMIC CHARGES AND SPIN POPULATIONS
-------------------------------------------
   0 C :   -0.156300    0.911748
   1 H :    0.022030    0.039513
   2 H :    0.076073    0.020796
   3 H :    0.058197    0.027943

----------------------------------------------------
LOEWDIN REDUCED ORBITAL CHARGES AND SPIN POPULATIONS
----------------------------------------------------
CHARGE
  0 C s       :     2.888884  s :     2.888884
      pz      :     0.901770  p :     3.169399
      px      :     1.120065
      py      :     1.147564
      dz2     :     0.005383  d :     0.090466
      dxz     :     0.006851
      dyz     :     0.003728
      dx2y2   :     0.042413
      dxy     :     0.032091
      f0      :     0.001037  f :     0.007551
      f+1     :     0.000715
      f-1     :     0.001570
      f+2     :     0.000912
      f-2     :     0.000463
      f+3     :     0.002626
      f-3     :     0.000228
  1 H s       :     0.813654  s :     0.813654
      pz      :     0.047983  p :     0.164317
      px      :     0.048055
      py      :     0.068278
  2 H s       :     0.797273  s :     0.797273
      pz      :     0.038209  p :     0.126655
      px      :     0.062581
      py      :     0.025864
  3 H s       :     0.801800  s :     0.801800
      pz      :     0.042197  p :     0.140002
      px      :     0.038261
      py      :     0.059544

SPIN
  0 C s       :     0.019824  s :     0.019824
      pz      :     0.783892  p :     0.900820
      px      :     0.083202
      py      :     0.033726
      dz2     :    -0.002900  d :    -0.007574
      dxz     :    -0.001091
      dyz     :    -0.000501
      dx2y2   :    -0.001828
      dxy     :    -0.001253
      f0      :    -0.000187  f :    -0.001322
      f+1     :    -0.000167
      f-1     :    -0.000396
      f+2     :    -0.000186
      f-2     :    -0.000112
      f+3     :    -0.000266
      f-3     :    -0.000009
  1 H s       :    -0.014936  s :    -0.014936
      pz      :     0.043979  p :     0.054449
      px      :     0.005132
      py      :     0.005338
  2 H s       :    -0.019381  s :    -0.019381
      pz      :     0.032180  p :     0.040177
      px      :     0.006733
      py      :     0.001264
  3 H s       :    -0.018227  s :    -0.018227
      pz      :     0.036802  p :     0.046170
      px      :     0.004610
      py      :     0.004758


                      *****************************
                      * MAYER POPULATION ANALYSIS *
                      *****************************

  NA   - Mulliken gross atomic population
  ZA   - Total nuclear charge
  QA   - Mulliken gross atomic charge
  VA   - Mayer's total valence
  BVA  - Mayer's bonded valence
  FA   - Mayer's free valence

  ATOM       NA         ZA         QA         VA         BVA        FA
  0 C      6.4292     6.0000    -0.4292     3.8747     2.9286     0.9461
  1 H      0.8528     1.0000     0.1472     0.9803     0.9784     0.0018
  2 H      0.8680     1.0000     0.1320     0.9822     0.9799     0.0023
  3 H      0.8500     1.0000     0.1500     0.9861     0.9840     0.0021

  Mayer bond orders larger than 0.100000
B(  0-C ,  1-H ) :   0.9763 B(  0-C ,  2-H ) :   0.9778 B(  0-C ,  3-H ) :   0.9745 


-------
TIMINGS
-------

Total SCF time: 0 days 0 hours 0 min 7 sec 

Total time                  ....       7.682 sec
Sum of individual times     ....       6.514 sec  ( 84.8%)

Fock matrix formation       ....       5.244 sec  ( 68.3%)
  Split-RI-J                ....       0.455 sec  (  8.7% of F)
  Chain of spheres X        ....       1.015 sec  ( 19.4% of F)
  XC integration            ....       2.031 sec  ( 38.7% of F)
    Basis function eval.    ....       0.109 sec  (  5.4% of XC)
    Density eval.           ....       0.110 sec  (  5.4% of XC)
    XC-Functional eval.     ....       0.101 sec  (  5.0% of XC)
    XC-Potential eval.      ....       0.152 sec  (  7.5% of XC)
Diagonalization             ....       0.040 sec  (  0.5%)
Density matrix formation    ....       0.002 sec  (  0.0%)
Population analysis         ....       0.052 sec  (  0.7%)
Initial guess               ....       0.137 sec  (  1.8%)
Orbital Transformation      ....       0.000 sec  (  0.0%)
Orbital Orthonormalization  ....       0.000 sec  (  0.0%)
DIIS solution               ....       0.197 sec  (  2.6%)
Grid generation             ....       0.841 sec  ( 10.9%)

Maximum memory used throughout the entire SCF-calculation: 59.0 MB

-------------------------   --------------------
FINAL SINGLE POINT ENERGY       -39.822515600984
-------------------------   --------------------

   --->>> g-tensor requested, so NeedSOC=true

                            ***************************************
                            *     ORCA property calculations      *
                            ***************************************

                                    ---------------------
                                    Active property flags
                                    ---------------------
   (+) Dipole Moment
   (+) g-tensor
   (+) Nuclear properties (Hyperfine,Quadrupole)
   (+) Spin-Orbit Integrals are needed


------------------------------------------------------------------------------
                       ORCA ELECTRIC PROPERTIES CALCULATION
------------------------------------------------------------------------------

Dipole Moment Calculation                       ... on
Quadrupole Moment Calculation                   ... off
Polarizability Calculation                      ... off
GBWName                                         ... /home/rwth0701/scratch/cs681498/orcajob__30556287-NWM9/7962.gbw
Electron density                                ... /home/rwth0701/scratch/cs681498/orcajob__30556287-NWM9/7962.scfp
The origin for moment calculation is the CENTER OF MASS  = (-45.213837, -79.291234 -31.322737)

-------------
DIPOLE MOMENT
-------------
                                X             Y             Z
Electronic contribution:      0.13446      -0.02455      -0.06398
Nuclear contribution   :     -0.12523       0.03690       0.07515
                        -----------------------------------------
Total Dipole Moment    :      0.00923       0.01235       0.01117
                        -----------------------------------------
Magnitude (a.u.)       :      0.01904
Magnitude (Debye)      :      0.04840



--------------------
Rotational spectrum 
--------------------
 
Rotational constants in cm-1:    10.530921     8.416052     4.678824 
Rotational constants in MHz : 315709.076377 252306.880499 140267.623021 

 Dipole components along the rotational axes: 
x,y,z [a.u.] :     0.006884     0.013765     0.011212 
x,y,z [Debye]:     0.017498     0.034988     0.028499 

 


           ************************************************************
           *        Program running with 4 parallel MPI-processes     *
           *              working on a common directory               *
           ************************************************************
------------------------------------------------------------------------------
                         ORCA SPIN-ORBIT COUPLING CALCULATION
------------------------------------------------------------------------------

GBW file                                    ... /home/rwth0701/scratch/cs681498/orcajob__30556287-NWM9/7962.gbw
Input density                               ... /home/rwth0701/scratch/cs681498/orcajob__30556287-NWM9/7962.scfp
Output integrals                            ... /home/rwth0701/scratch/cs681498/orcajob__30556287-NWM9/7962
Operator type                               ... Mean-field/Effective potential
   One-Electron Terms                       ... 1
   Coulomb Contribution                     ... 3
   Exchange Contribution                    ... 3
   Correlation Contribution                 ... 0
   Maximum number of centers                ... 4
SHARK 2-electron RIJ-SOMF                   ... done (  0.1 sec)
SHARK 1-electron  MaxCenter=4               ... done (  0.0 sec)
SHARK 2-electron DoJ,X=0,1 MaxCenter=1      ... done (  0.1 sec)

Maximum memory used throughout the entire SOC-calculation: 11.3 MB
Total time for SOC:  3.064


           ************************************************************
           *        Program running with 4 parallel MPI-processes     *
           *              working on a common directory               *
           ************************************************************
------------------------------------------------------------------------------
                                ORCA EPR/NMR CALCULATION
------------------------------------------------------------------------------

GBWName                      ... /home/rwth0701/scratch/cs681498/orcajob__30556287-NWM9/7962.gbw
Electron density             ... /home/rwth0701/scratch/cs681498/orcajob__30556287-NWM9/7962.scfp
Spin density                 ... /home/rwth0701/scratch/cs681498/orcajob__30556287-NWM9/7962.scfr
Spin-orbit integrals         ... /home/rwth0701/scratch/cs681498/orcajob__30556287-NWM9/7962
Treatment of gauge           ... GIAO (approximations 1/2el = 0,0)
Details of the CP(SCF) procedure:
       Solver   = POPLE   
       MaxIter  =    64   
       Tolerance=    1.000e-03
       COSX Grid=     1   
       Op-0     =   0-  4 =>   5- 72
       Op-1     =   0-  3 =>   4- 72
Multiplicity                 ... 2
g-tensor                     ... 1
NMR chemical shifts          ... 0
NMR spin-spin couplings      ... 0
NMR spectrum                 ... 0
Number of nuclei for epr/nmr ... 4
   Nucleus:   1H 
       Hyperfine : Isotope=    1 I=   0.500 P= 533.551
       Quadrupole: Isotope=    2 I=   1.000 Q=   0.003
       Spin-Orbit: Zeff=   1.000
       Nuclear Spin-Spin: Gn=   0.000
       EPRNMR Input: 
       rho(0)=N f(grad)=N a(iso)=Y a(dip)=Y a(orb)=Y sigma(nmr)=N spin-spin(nmr)=all-N,DSO-N,PSO-N,FC-N,SD-N
   Nucleus:   2H 
       Hyperfine : Isotope=    1 I=   0.500 P= 533.551
       Quadrupole: Isotope=    2 I=   1.000 Q=   0.003
       Spin-Orbit: Zeff=   1.000
       Nuclear Spin-Spin: Gn=   0.000
       EPRNMR Input: 
       rho(0)=N f(grad)=N a(iso)=Y a(dip)=Y a(orb)=Y sigma(nmr)=N spin-spin(nmr)=all-N,DSO-N,PSO-N,FC-N,SD-N
   Nucleus:   3H 
       Hyperfine : Isotope=    1 I=   0.500 P= 533.551
       Quadrupole: Isotope=    2 I=   1.000 Q=   0.003
       Spin-Orbit: Zeff=   1.000
       Nuclear Spin-Spin: Gn=   0.000
       EPRNMR Input: 
       rho(0)=N f(grad)=N a(iso)=Y a(dip)=Y a(orb)=Y sigma(nmr)=N spin-spin(nmr)=all-N,DSO-N,PSO-N,FC-N,SD-N
   Nucleus:   0C 
       Hyperfine : Isotope=   13 I=   0.500 P= 134.190
       Quadrupole: Isotope=   13 I=   0.500 Q=   0.000
       Spin-Orbit: Zeff=   3.600
       Nuclear Spin-Spin: Gn=   0.000
       EPRNMR Input: 
       rho(0)=N f(grad)=N a(iso)=Y a(dip)=Y a(orb)=Y sigma(nmr)=N spin-spin(nmr)=all-N,DSO-N,PSO-N,FC-N,SD-N
Forming RHS of the CP-SCF equations         ... 
Calculating right hand sides for GIAO treatment        ... 
  Entering RightHandSide GIAO. ScalHFX=    0.2000 NeedHFX=1
     -> 1-electron GIAO integrals will be done analytically
     -> RIJCOSX used in SCF. Same chosen for GIAO calculation.
     Making grid for GIAO integrations   ...

GRID GIAO
---------

General Integration Accuracy     IntAcc      ... 4.388
Radial Grid Type                 RadialGrid  ... OptM3 with GC (2021)
Angular Grid (max. ang.)         AngularGrid ... 4 (Lebedev-302)
Angular grid pruning method      GridPruning ... 4 (adaptive)
Weight generation scheme         WeightScheme... Becke
Basis function cutoff            BFCut       ... 1.0000e-10
Integration weight cutoff        WCut        ... 1.0000e-14
Angular grids for H and He will be reduced by one unit
Partially contracted basis set               ... off
Rotationally invariant grid construction     ... off

Total number of grid points                  ...    17056
Total number of batches                      ...      269
Average number of points per batch           ...       63
Average number of grid points per atom       ...     4264

  One-electron GIAO integrals (SHARK)     ... done
  Calculating G(B)[P]                     ... (RI-J: SHARK-ok) (COSX-ok) (add-J+K:ok) => dG/dB done
  DFT XC-terms                            ... done
  Extracting occupied and virtual blocks  ... 
  Operator  0  NO=   5 NV=  68 
  Operator  1  NO=   4 NV=  69 
  Transforming and RHS contribution       ... done
  Adding eps_i * S(B)_ai terms            ... done
  Projecting overlap derivatives          ... done
  Building G[dS/dB_ij] (COSX)             ... done
  Transforming to MO basis                ... done
  Summing G[dS/dB_ij] into RHS contribs.  ... done

  GIAO profiling information: 
    Total GIAO time               ...       0.8 sec
       GIAO 1-electron integrals  ...       0.0 sec (  0.5%)
       GIAO G(dS/dB) terms        ...       0.1 sec ( 12.8%)
       GIAO RI-J                  ...       0.1 sec ( 12.4%)
       GIAO COSX                  ...       0.1 sec ( 18.1%)
       GIAO XC-terms              ...       0.3 sec ( 35.7%)

  GIAO right hand side done


------------------------------------------------------------------------------
                           ORCA CP-SCF CALCULATION
------------------------------------------------------------------------------

Input orbitals are from        ... /home/rwth0701/scratch/cs681498/orcajob__30556287-NWM9/7962.gbw
Input Perturbation             ... /home/rwth0701/scratch/cs681498/orcajob__30556287-NWM9/7962.pin.tmp
Wavefunction output            ... /home/rwth0701/scratch/cs681498/orcajob__30556287-NWM9/7962.pout.tmp
Perturbation mode              ... Imaginary perturbation
Solver                         ... POPLE
Max. number of iterations      ... 64
Convergence tolerance          ... 1.000e-03
Integral handling              ... Direct
DFT GridXC                     ... 1
COSX GridX                     ... 1
COSX IntAccX                   ... 3.067
COSX Algorithm                 ... Auto
Number of perturbations        ... 3
Number of operators            ... 2
Orbital ranges used for CP-SCF:
 Operator 0:  Orbitals   0...  4  to   5... 72
 Operator 1:  Orbitals   0...  3  to   4... 72
Variables per perturbation     ... 616
DFT calculation                         ... on
XC functional terms                     ... off
Hybrid DFT                              ... on
   Exchange mixing (SCF)                ...  0.200
   Exchange mixing (CP-SCF)             ...  0.200
   GGA exch. scaling(SCF)               ...  0.720
   GGA exch. scaling (CP-SCF)           ...  0.720
   GGA corr. scaling (SCF)              ...  0.810
   GGA corr. scaling (CP-SCF)           ...  0.810

CP-SCF GRID
-----------

General Integration Accuracy     IntAcc      ... 3.467
Radial Grid Type                 RadialGrid  ... OptM3 with GC (2021)
Angular Grid (max. ang.)         AngularGrid ... 1 (Lebedev-50)
Angular grid pruning method      GridPruning ... 4 (adaptive)
Weight generation scheme         WeightScheme... Becke
Basis function cutoff            BFCut       ... 1.0000e-10
Integration weight cutoff        WCut        ... 1.0000e-14
Angular grids for H and He will be reduced by one unit
Partially contracted basis set               ... off
Rotationally invariant grid construction     ... off

Total number of grid points                  ...     2347
Total number of batches                      ...       39
Average number of points per batch           ...       60
Average number of grid points per atom       ...      587

CP-SCF GRIDX
------------

General Integration Accuracy     IntAcc      ... 3.067
Radial Grid Type                 RadialGrid  ... OptM3 with GC (2021)
Angular Grid (max. ang.)         AngularGrid ... 1 (Lebedev-50)
Angular grid pruning method      GridPruning ... 4 (adaptive)
Weight generation scheme         WeightScheme... Becke
Basis function cutoff            BFCut       ... 1.0000e-10
Integration weight cutoff        WCut        ... 1.0000e-14
Angular grids for H and He will be reduced by one unit
Partially contracted basis set               ... on
Rotationally invariant grid construction     ... off

Total number of grid points                  ...     1078
Total number of batches                      ...       20
Average number of points per batch           ...       53
Average number of grid points per atom       ...      270

Memory available               ... 1014.6 MB
Memory needed per perturbation ...   0.4 MB
Perturbations treated per batch... 3
Number of batches              ... 1
     CP-SCF ITERATION   0:   4.2768e+00 (   0.1 sec   0/  3 done)
     CP-SCF ITERATION   1:   3.8173e-02 (   0.1 sec   0/  3 done)
     CP-SCF ITERATION   2:   3.6777e-03 (   0.1 sec   0/  3 done)
     CP-SCF ITERATION   3:   2.1319e-04 (   0.1 sec   3/  3 done)
                    *** THE CP-SCF HAS CONVERGED ***

Forming final perturbed densities           ... done
Transforming perturbed density to AO basis  ... done

Magnetic field perturbation calculated in  1.296 sec
GIAO: Diamagnetic terms      (analytic)     (SHARK) ... done
GIAO: 1el-Paramagnetic terms (analytic)     (SHARK) ... done

-------------------
ELECTRONIC G-MATRIX
-------------------

 The g-matrix: 
              2.0028420    0.0000126   -0.0001806
             -0.0000001    2.0028752    0.0001101
             -0.0001766    0.0001154    2.0023013

 gel          2.0023193    2.0023193    2.0023193
 gRMC        -0.0001273   -0.0001273   -0.0001273
 gDSO(tot)    0.0000344    0.0000709    0.0000710
 gPSO(tot)    0.0000026    0.0006058    0.0006580
             ----------   ----------   ----------
 g(tot)       2.0022290    2.0028687    2.0029210 iso=  2.0026729
 Delta-g     -0.0000903    0.0005494    0.0006017 iso=  0.0003536
 Orientation: 
  X           0.2773693   -0.7010491    0.6569600
  Y          -0.1677644   -0.7086249   -0.6853509
  Z           0.9460028    0.0798808   -0.3141619

Notes:  (1) The g-matrix conforms to the "BgS" spin Hamiltonian convention. 
        (2) The principal values are square roots of the eigenvalues of g*gT.
        (3) Orientations are eigenvectors of g*gT written as column vectors.
        (4) Individual contributions are projections of the full matrices onto the eigenvectors of g*gT.
        (5) Tensor is right-handed.


-----------------------------------------
ELECTRIC AND MAGNETIC HYPERFINE STRUCTURE
-----------------------------------------

 -----------------------------------------------------------
 Nucleus   1H : A:ISTP=    1 I=  0.5 P=533.5514 MHz/au**3
                Q:ISTP=    2 I=  1.0 Q=  0.0029 barn     
 -----------------------------------------------------------
 Solving for nuclear perturbation:
Forming RHS of the CP-SCF equations         ... 
Calc. nucleus orbit integrals (SHARK)       ... done

------------------------------------------------------------------------------
                           ORCA CP-SCF CALCULATION
------------------------------------------------------------------------------

Input orbitals are from        ... /home/rwth0701/scratch/cs681498/orcajob__30556287-NWM9/7962.gbw
Input Perturbation             ... /home/rwth0701/scratch/cs681498/orcajob__30556287-NWM9/7962.pin.tmp
Wavefunction output            ... /home/rwth0701/scratch/cs681498/orcajob__30556287-NWM9/7962.pout.tmp
Perturbation mode              ... Imaginary perturbation
Solver                         ... POPLE
Max. number of iterations      ... 64
Convergence tolerance          ... 1.000e-03
Integral handling              ... Direct
DFT GridXC                     ... 1
COSX GridX                     ... 1
COSX IntAccX                   ... 3.067
COSX Algorithm                 ... Auto
Number of perturbations        ... 3
Number of operators            ... 2
Orbital ranges used for CP-SCF:
 Operator 0:  Orbitals   0...  4  to   5... 72
 Operator 1:  Orbitals   0...  3  to   4... 72
Variables per perturbation     ... 616
DFT calculation                         ... on
XC functional terms                     ... off
Hybrid DFT                              ... on
   Exchange mixing (SCF)                ...  0.200
   Exchange mixing (CP-SCF)             ...  0.200
   GGA exch. scaling(SCF)               ...  0.720
   GGA exch. scaling (CP-SCF)           ...  0.720
   GGA corr. scaling (SCF)              ...  0.810
   GGA corr. scaling (CP-SCF)           ...  0.810

CP-SCF GRID
-----------

General Integration Accuracy     IntAcc      ... 3.467
Radial Grid Type                 RadialGrid  ... OptM3 with GC (2021)
Angular Grid (max. ang.)         AngularGrid ... 1 (Lebedev-50)
Angular grid pruning method      GridPruning ... 4 (adaptive)
Weight generation scheme         WeightScheme... Becke
Basis function cutoff            BFCut       ... 1.0000e-10
Integration weight cutoff        WCut        ... 1.0000e-14
Angular grids for H and He will be reduced by one unit
Partially contracted basis set               ... off
Rotationally invariant grid construction     ... off

Total number of grid points                  ...     2347
Total number of batches                      ...       39
Average number of points per batch           ...       60
Average number of grid points per atom       ...      587

CP-SCF GRIDX
------------

General Integration Accuracy     IntAcc      ... 3.067
Radial Grid Type                 RadialGrid  ... OptM3 with GC (2021)
Angular Grid (max. ang.)         AngularGrid ... 1 (Lebedev-50)
Angular grid pruning method      GridPruning ... 4 (adaptive)
Weight generation scheme         WeightScheme... Becke
Basis function cutoff            BFCut       ... 1.0000e-10
Integration weight cutoff        WCut        ... 1.0000e-14
Angular grids for H and He will be reduced by one unit
Partially contracted basis set               ... on
Rotationally invariant grid construction     ... off

Total number of grid points                  ...     1078
Total number of batches                      ...       20
Average number of points per batch           ...       53
Average number of grid points per atom       ...      270

Memory available               ... 968.0 MB
Memory needed per perturbation ...   0.4 MB
Perturbations treated per batch... 3
Number of batches              ... 1
     CP-SCF ITERATION   0:   7.3803e-02 (   0.1 sec   0/  3 done)
     CP-SCF ITERATION   1:   2.8316e-03 (   0.1 sec   0/  3 done)
     CP-SCF ITERATION   2:   2.5090e-04 (   0.1 sec   3/  3 done)
                    *** THE CP-SCF HAS CONVERGED ***

Forming final perturbed densities           ... done
Transforming perturbed density to AO basis  ... done

 Raw HFC matrix (all values in MHz): 
 -----------------------------------
               -87.4931              30.6542              13.8165
                30.6546             -37.6781              -4.9628
                13.8166              -4.9626             -64.2542

 A(FC)         -63.1565             -63.1565             -63.1565
 A(SD)          40.1127               3.8348             -43.9475
 A(ORB+DIA)      0.0111              -0.0006               0.0336    A(PC) =   0.0147
 A(ORB)          0.0055               0.0007               0.0319    A(PC) =   0.0127
 A(DIA)          0.0056              -0.0012               0.0017    A(PC) =   0.0020
             ----------           ----------           ----------
 A(Tot)        -23.0327             -59.3222            -107.0705    A(iso)=  -63.1418
 Orientation: 
  X           0.4357511           -0.2753564           -0.8569130
  Y           0.8992737            0.1731611            0.4016492
  Z           0.0377873           -0.9456184            0.3230759

Notes:  (1) The A matrix conforms to the "SAI" spin Hamiltonian convention.
        (2) Tensor is right-handed.

 -----------------------------------------------------------
 Nucleus   2H : A:ISTP=    1 I=  0.5 P=533.5514 MHz/au**3
                Q:ISTP=    2 I=  1.0 Q=  0.0029 barn     
 -----------------------------------------------------------
 Solving for nuclear perturbation:
Forming RHS of the CP-SCF equations         ... 
Calc. nucleus orbit integrals (SHARK)       ... done

------------------------------------------------------------------------------
                           ORCA CP-SCF CALCULATION
------------------------------------------------------------------------------

Input orbitals are from        ... /home/rwth0701/scratch/cs681498/orcajob__30556287-NWM9/7962.gbw
Input Perturbation             ... /home/rwth0701/scratch/cs681498/orcajob__30556287-NWM9/7962.pin.tmp
Wavefunction output            ... /home/rwth0701/scratch/cs681498/orcajob__30556287-NWM9/7962.pout.tmp
Perturbation mode              ... Imaginary perturbation
Solver                         ... POPLE
Max. number of iterations      ... 64
Convergence tolerance          ... 1.000e-03
Integral handling              ... Direct
DFT GridXC                     ... 1
COSX GridX                     ... 1
COSX IntAccX                   ... 3.067
COSX Algorithm                 ... Auto
Number of perturbations        ... 3
Number of operators            ... 2
Orbital ranges used for CP-SCF:
 Operator 0:  Orbitals   0...  4  to   5... 72
 Operator 1:  Orbitals   0...  3  to   4... 72
Variables per perturbation     ... 616
DFT calculation                         ... on
XC functional terms                     ... off
Hybrid DFT                              ... on
   Exchange mixing (SCF)                ...  0.200
   Exchange mixing (CP-SCF)             ...  0.200
   GGA exch. scaling(SCF)               ...  0.720
   GGA exch. scaling (CP-SCF)           ...  0.720
   GGA corr. scaling (SCF)              ...  0.810
   GGA corr. scaling (CP-SCF)           ...  0.810

CP-SCF GRID
-----------

General Integration Accuracy     IntAcc      ... 3.467
Radial Grid Type                 RadialGrid  ... OptM3 with GC (2021)
Angular Grid (max. ang.)         AngularGrid ... 1 (Lebedev-50)
Angular grid pruning method      GridPruning ... 4 (adaptive)
Weight generation scheme         WeightScheme... Becke
Basis function cutoff            BFCut       ... 1.0000e-10
Integration weight cutoff        WCut        ... 1.0000e-14
Angular grids for H and He will be reduced by one unit
Partially contracted basis set               ... off
Rotationally invariant grid construction     ... off

Total number of grid points                  ...     2347
Total number of batches                      ...       39
Average number of points per batch           ...       60
Average number of grid points per atom       ...      587

CP-SCF GRIDX
------------

General Integration Accuracy     IntAcc      ... 3.067
Radial Grid Type                 RadialGrid  ... OptM3 with GC (2021)
Angular Grid (max. ang.)         AngularGrid ... 1 (Lebedev-50)
Angular grid pruning method      GridPruning ... 4 (adaptive)
Weight generation scheme         WeightScheme... Becke
Basis function cutoff            BFCut       ... 1.0000e-10
Integration weight cutoff        WCut        ... 1.0000e-14
Angular grids for H and He will be reduced by one unit
Partially contracted basis set               ... on
Rotationally invariant grid construction     ... off

Total number of grid points                  ...     1078
Total number of batches                      ...       20
Average number of points per batch           ...       53
Average number of grid points per atom       ...      270

Memory available               ... 967.8 MB
Memory needed per perturbation ...   0.4 MB
Perturbations treated per batch... 3
Number of batches              ... 1
     CP-SCF ITERATION   0:   5.4245e-02 (   0.1 sec   0/  3 done)
     CP-SCF ITERATION   1:   1.9887e-03 (   0.1 sec   0/  3 done)
     CP-SCF ITERATION   2:   1.4236e-04 (   0.1 sec   3/  3 done)
                    *** THE CP-SCF HAS CONVERGED ***

Forming final perturbed densities           ... done
Transforming perturbed density to AO basis  ... done

 Raw HFC matrix (all values in MHz): 
 -----------------------------------
               -33.7425              -5.7851             -11.6903
                -5.7856            -100.4807              -3.7412
               -11.6904              -3.7413             -64.7599

 A(FC)         -66.3417             -66.3417             -66.3417
 A(SD)          36.7612              -1.4561             -35.3051
 A(ORB+DIA)      0.0139              -0.0007               0.0289    A(PC) =   0.0140
 A(ORB)          0.0097               0.0003               0.0277    A(PC) =   0.0126
 A(DIA)          0.0043              -0.0011               0.0012    A(PC) =   0.0015
             ----------           ----------           ----------
 A(Tot)        -29.5666             -67.7986            -101.6180    A(iso)=  -66.3277
 Orientation: 
  X           0.9491633            0.2960261           -0.1070398
  Y          -0.0611415           -0.1601931           -0.9851903
  Z          -0.3087891            0.9416511           -0.1339499

Notes:  (1) The A matrix conforms to the "SAI" spin Hamiltonian convention.
        (2) Tensor is right-handed.

 -----------------------------------------------------------
 Nucleus   3H : A:ISTP=    1 I=  0.5 P=533.5514 MHz/au**3
                Q:ISTP=    2 I=  1.0 Q=  0.0029 barn     
 -----------------------------------------------------------
 Solving for nuclear perturbation:
Forming RHS of the CP-SCF equations         ... 
Calc. nucleus orbit integrals (SHARK)       ... done

------------------------------------------------------------------------------
                           ORCA CP-SCF CALCULATION
------------------------------------------------------------------------------

Input orbitals are from        ... /home/rwth0701/scratch/cs681498/orcajob__30556287-NWM9/7962.gbw
Input Perturbation             ... /home/rwth0701/scratch/cs681498/orcajob__30556287-NWM9/7962.pin.tmp
Wavefunction output            ... /home/rwth0701/scratch/cs681498/orcajob__30556287-NWM9/7962.pout.tmp
Perturbation mode              ... Imaginary perturbation
Solver                         ... POPLE
Max. number of iterations      ... 64
Convergence tolerance          ... 1.000e-03
Integral handling              ... Direct
DFT GridXC                     ... 1
COSX GridX                     ... 1
COSX IntAccX                   ... 3.067
COSX Algorithm                 ... Auto
Number of perturbations        ... 3
Number of operators            ... 2
Orbital ranges used for CP-SCF:
 Operator 0:  Orbitals   0...  4  to   5... 72
 Operator 1:  Orbitals   0...  3  to   4... 72
Variables per perturbation     ... 616
DFT calculation                         ... on
XC functional terms                     ... off
Hybrid DFT                              ... on
   Exchange mixing (SCF)                ...  0.200
   Exchange mixing (CP-SCF)             ...  0.200
   GGA exch. scaling(SCF)               ...  0.720
   GGA exch. scaling (CP-SCF)           ...  0.720
   GGA corr. scaling (SCF)              ...  0.810
   GGA corr. scaling (CP-SCF)           ...  0.810

CP-SCF GRID
-----------

General Integration Accuracy     IntAcc      ... 3.467
Radial Grid Type                 RadialGrid  ... OptM3 with GC (2021)
Angular Grid (max. ang.)         AngularGrid ... 1 (Lebedev-50)
Angular grid pruning method      GridPruning ... 4 (adaptive)
Weight generation scheme         WeightScheme... Becke
Basis function cutoff            BFCut       ... 1.0000e-10
Integration weight cutoff        WCut        ... 1.0000e-14
Angular grids for H and He will be reduced by one unit
Partially contracted basis set               ... off
Rotationally invariant grid construction     ... off

Total number of grid points                  ...     2347
Total number of batches                      ...       39
Average number of points per batch           ...       60
Average number of grid points per atom       ...      587

CP-SCF GRIDX
------------

General Integration Accuracy     IntAcc      ... 3.067
Radial Grid Type                 RadialGrid  ... OptM3 with GC (2021)
Angular Grid (max. ang.)         AngularGrid ... 1 (Lebedev-50)
Angular grid pruning method      GridPruning ... 4 (adaptive)
Weight generation scheme         WeightScheme... Becke
Basis function cutoff            BFCut       ... 1.0000e-10
Integration weight cutoff        WCut        ... 1.0000e-14
Angular grids for H and He will be reduced by one unit
Partially contracted basis set               ... on
Rotationally invariant grid construction     ... off

Total number of grid points                  ...     1078
Total number of batches                      ...       20
Average number of points per batch           ...       53
Average number of grid points per atom       ...      270

Memory available               ... 967.7 MB
Memory needed per perturbation ...   0.4 MB
Perturbations treated per batch... 3
Number of batches              ... 1
     CP-SCF ITERATION   0:   6.6288e-02 (   0.1 sec   0/  3 done)
     CP-SCF ITERATION   1:   2.6414e-03 (   0.1 sec   0/  3 done)
     CP-SCF ITERATION   2:   2.3076e-04 (   0.1 sec   3/  3 done)
                    *** THE CP-SCF HAS CONVERGED ***

Forming final perturbed densities           ... done
Transforming perturbed density to AO basis  ... done

 Raw HFC matrix (all values in MHz): 
 -----------------------------------
               -89.7756             -30.1019               1.6503
               -30.1002             -48.6305              11.7829
                 1.6506              11.7834             -66.6300

 A(FC)         -68.3590             -68.3590             -68.3590
 A(SD)          38.2017               0.3728             -38.5745
 A(ORB+DIA)      0.0122              -0.0006               0.0295    A(PC) =   0.0137
 A(ORB)          0.0074               0.0005               0.0281    A(PC) =   0.0120
 A(DIA)          0.0048              -0.0011               0.0013    A(PC) =   0.0016
             ----------           ----------           ----------
 A(Tot)        -30.1452             -67.9869            -106.9041    A(iso)=  -68.3454
 Orientation: 
  X          -0.4294147            0.2764759            0.8597465
  Y           0.8649039           -0.1480598            0.4796035
  Z           0.2598927            0.9495469           -0.1755460

Notes:  (1) The A matrix conforms to the "SAI" spin Hamiltonian convention.
        (2) Tensor is right-handed.

 -----------------------------------------------------------
 Nucleus   0C : A:ISTP=   13 I=  0.5 P=134.1903 MHz/au**3
                Q:ISTP=   13 I=  0.5 Q=  0.0000 barn     
 -----------------------------------------------------------
 Solving for nuclear perturbation:
Forming RHS of the CP-SCF equations         ... 
Calc. nucleus orbit integrals (SHARK)       ... done

------------------------------------------------------------------------------
                           ORCA CP-SCF CALCULATION
------------------------------------------------------------------------------

Input orbitals are from        ... /home/rwth0701/scratch/cs681498/orcajob__30556287-NWM9/7962.gbw
Input Perturbation             ... /home/rwth0701/scratch/cs681498/orcajob__30556287-NWM9/7962.pin.tmp
Wavefunction output            ... /home/rwth0701/scratch/cs681498/orcajob__30556287-NWM9/7962.pout.tmp
Perturbation mode              ... Imaginary perturbation
Solver                         ... POPLE
Max. number of iterations      ... 64
Convergence tolerance          ... 1.000e-03
Integral handling              ... Direct
DFT GridXC                     ... 1
COSX GridX                     ... 1
COSX IntAccX                   ... 3.067
COSX Algorithm                 ... Auto
Number of perturbations        ... 3
Number of operators            ... 2
Orbital ranges used for CP-SCF:
 Operator 0:  Orbitals   0...  4  to   5... 72
 Operator 1:  Orbitals   0...  3  to   4... 72
Variables per perturbation     ... 616
DFT calculation                         ... on
XC functional terms                     ... off
Hybrid DFT                              ... on
   Exchange mixing (SCF)                ...  0.200
   Exchange mixing (CP-SCF)             ...  0.200
   GGA exch. scaling(SCF)               ...  0.720
   GGA exch. scaling (CP-SCF)           ...  0.720
   GGA corr. scaling (SCF)              ...  0.810
   GGA corr. scaling (CP-SCF)           ...  0.810

CP-SCF GRID
-----------

General Integration Accuracy     IntAcc      ... 3.467
Radial Grid Type                 RadialGrid  ... OptM3 with GC (2021)
Angular Grid (max. ang.)         AngularGrid ... 1 (Lebedev-50)
Angular grid pruning method      GridPruning ... 4 (adaptive)
Weight generation scheme         WeightScheme... Becke
Basis function cutoff            BFCut       ... 1.0000e-10
Integration weight cutoff        WCut        ... 1.0000e-14
Angular grids for H and He will be reduced by one unit
Partially contracted basis set               ... off
Rotationally invariant grid construction     ... off

Total number of grid points                  ...     2347
Total number of batches                      ...       39
Average number of points per batch           ...       60
Average number of grid points per atom       ...      587

CP-SCF GRIDX
------------

General Integration Accuracy     IntAcc      ... 3.067
Radial Grid Type                 RadialGrid  ... OptM3 with GC (2021)
Angular Grid (max. ang.)         AngularGrid ... 1 (Lebedev-50)
Angular grid pruning method      GridPruning ... 4 (adaptive)
Weight generation scheme         WeightScheme... Becke
Basis function cutoff            BFCut       ... 1.0000e-10
Integration weight cutoff        WCut        ... 1.0000e-14
Angular grids for H and He will be reduced by one unit
Partially contracted basis set               ... on
Rotationally invariant grid construction     ... off

Total number of grid points                  ...     1078
Total number of batches                      ...       20
Average number of points per batch           ...       53
Average number of grid points per atom       ...      270

Memory available               ... 967.6 MB
Memory needed per perturbation ...   0.4 MB
Perturbations treated per batch... 3
Number of batches              ... 1
     CP-SCF ITERATION   0:   1.1642e+00 (   0.1 sec   0/  3 done)
     CP-SCF ITERATION   1:   4.3395e-02 (   0.1 sec   0/  3 done)
     CP-SCF ITERATION   2:   3.2774e-03 (   0.1 sec   0/  3 done)
     CP-SCF ITERATION   3:   1.5420e-04 (   0.1 sec   3/  3 done)
                    *** THE CP-SCF HAS CONVERGED ***

Forming final perturbed densities           ... done
Transforming perturbed density to AO basis  ... done

 Raw HFC matrix (all values in MHz): 
 -----------------------------------
                23.7652             -10.8624              64.4271
               -10.8623               9.5036             -36.5941
                64.4271             -36.5941             220.2175

 A(FC)          84.6126              84.6126              84.6126
 A(SD)         -81.1096             -79.9227             161.0324
 A(ORB+DIA)     -0.1737              -0.1651              -0.0127    A(PC) =  -0.1172
 A(ORB)         -0.1741              -0.1655              -0.0126    A(PC) =  -0.1174
 A(DIA)          0.0004               0.0004              -0.0001    A(PC) =   0.0002
             ----------           ----------           ----------
 A(Tot)          3.3293               4.5247             245.6323    A(iso)=   84.4954
 Orientation: 
  X          -0.0061211           -0.9592507            0.2824899
  Y           0.9857447           -0.0532869           -0.1595865
  Z           0.1681365            0.2774861            0.9459025

Notes:  (1) The A matrix conforms to the "SAI" spin Hamiltonian convention.
        (2) Tensor is right-handed.


--------------------------------------------------------------------------------
----------------------------------------------------------------------------
                           ORCA EULER ANGLE PROGRAM
----------------------------------------------------------------------------

Only g-tensor available        -->  using g-tensor as reference tensor

Reference tensor               ...  g

g-tensor ordering              ...  |g_min> --> |gx>
                                    |g_mid> --> |gy>
                                    |g_max> --> |gz>

A- and EFG-tensor ordering     ...  the axes |Ax>, |Qx>, |Ay>, etc. are assigned
                                    such that the Euler rotation is minimal. You
                                    can find the respective eigenvalues as Ax,
                                    EFGx, Ay, etc. in the tables below.
                                    The relation of |Ax>, |Ay>,  etc. to Amin, Amid, etc.
                                    (as printed in the ORCA EPR/NMR CALCULATION Output)
                                    is obtained in the detailed printout.

Euler rotation around          ...  z - y - z
   First rotation              -->  by alpha around z
   Second rotation             -->  by beta around y'
   Third rotation              -->  by gamma around z''
   Positive / Negative angle   -->  clockwise / counterclockwise rotation

Plot EFG-tensors                    (-)
Plot HFC-tensors                    (-)
Detailed Printout                   (-)

-------------------------------------------------------------------------
          Euler rotation of hyperfine tensor to g-tensor
-------------------------------------------------------------------------

-------------------------------------------------------------------
 Atom  |   Alpha    Beta    Gamma   |   Ax       Ay       Az 
       |          [degrees]         |           [MHz]         
-------------------------------------------------------------------
  1H       89.6     20.0    -89.9     -59.32   -23.03  -107.07
  2H       89.3     40.3    -88.4     -67.80  -101.62   -29.57
  3H      -93.0     17.0     93.6     -67.99  -106.90   -30.15
  0C      -90.2     42.9     90.7     245.63     4.52     3.33
-------------------------------------------------------------------


Maximum memory used throughout the entire EPRNMR-calculation: 67.6 MB

Timings for individual modules:

Sum of individual times         ...       27.080 sec (=   0.451 min)
GTO integral calculation        ...        5.803 sec (=   0.097 min)  21.4 %
Spin-Orbit-Coupling Matrices    ...        3.037 sec (=   0.051 min)  11.2 %
SCF iterations                  ...       11.697 sec (=   0.195 min)  43.2 %
EPR/NMR calculation             ...        6.542 sec (=   0.109 min)  24.2 %
                             ****ORCA TERMINATED NORMALLY****
TOTAL RUN TIME: 0 days 0 hours 0 minutes 29 seconds 673 msec
