Job execution start: Mon Oct 24 20:42:51 CEST 2022
Shared library path: /home/cs681498/orca:/opt/MPI/openmpi-4.1.1/linux/gcc_4.8.5/lib:/opt/MPI/openmpi-4.1.1/linux/gcc_4.8.5/lib/lib32
Slurm Job ID is: 30556450
Slurm Job name is: 13736
ncm0933

                                 *****************
                                 * O   R   C   A *
                                 *****************

                                            #,                                       
                                            ###                                      
                                            ####                                     
                                            #####                                    
                                            ######                                   
                                           ########,                                 
                                     ,,################,,,,,                         
                               ,,#################################,,                 
                          ,,##########################################,,             
                       ,#########################################, ''#####,          
                    ,#############################################,,   '####,        
                  ,##################################################,,,,####,       
                ,###########''''           ''''###############################       
              ,#####''   ,,,,##########,,,,          '''####'''          '####       
            ,##' ,,,,###########################,,,                        '##       
           ' ,,###''''                  '''############,,,                           
         ,,##''                                '''############,,,,        ,,,,,,###''
      ,#''                                            '''#######################'''  
     '                                                          ''''####''''         
             ,#######,   #######,   ,#######,      ##                                
            ,#'     '#,  ##    ##  ,#'     '#,    #''#        ######   ,####,        
            ##       ##  ##   ,#'  ##            #'  '#       #        #'  '#        
            ##       ##  #######   ##           ,######,      #####,   #    #        
            '#,     ,#'  ##    ##  '#,     ,#' ,#      #,         ##   #,  ,#        
             '#######'   ##     ##  '#######'  #'      '#     #####' # '####'        



                  #######################################################
                  #                        -***-                        #
                  #          Department of theory and spectroscopy      #
                  #    Directorship and core code : Frank Neese         #
                  #        Max Planck Institute fuer Kohlenforschung    #
                  #                Kaiser Wilhelm Platz 1               #
                  #                 D-45470 Muelheim/Ruhr               #
                  #                      Germany                        #
                  #                                                     #
                  #                  All rights reserved                #
                  #                        -***-                        #
                  #######################################################


                         Program Version 5.0.3 -  RELEASE  -


 With contributions from (in alphabetic order):
   Daniel Aravena         : Magnetic Suceptibility
   Michael Atanasov       : Ab Initio Ligand Field Theory (pilot matlab implementation)
   Alexander A. Auer      : GIAO ZORA, VPT2 properties, NMR spectrum
   Ute Becker             : Parallelization
   Giovanni Bistoni       : ED, misc. LED, open-shell LED, HFLD
   Martin Brehm           : Molecular dynamics
   Dmytro Bykov           : SCF Hessian
   Vijay G. Chilkuri      : MRCI spin determinant printing, contributions to CSF-ICE
   Dipayan Datta          : RHF DLPNO-CCSD density
   Achintya Kumar Dutta   : EOM-CC, STEOM-CC
   Dmitry Ganyushin       : Spin-Orbit,Spin-Spin,Magnetic field MRCI
   Miquel Garcia          : C-PCM and meta-GGA Hessian, CC/C-PCM, Gaussian charge scheme
   Yang Guo               : DLPNO-NEVPT2, F12-NEVPT2, CIM, IAO-localization
   Andreas Hansen         : Spin unrestricted coupled pair/coupled cluster methods
   Benjamin Helmich-Paris : MC-RPA, TRAH-SCF, COSX integrals
   Lee Huntington         : MR-EOM, pCC
   Robert Izsak           : Overlap fitted RIJCOSX, COSX-SCS-MP3, EOM
   Marcus Kettner         : VPT2
   Christian Kollmar      : KDIIS, OOCD, Brueckner-CCSD(T), CCSD density, CASPT2, CASPT2-K
   Simone Kossmann        : Meta GGA functionals, TD-DFT gradient, OOMP2, MP2 Hessian
   Martin Krupicka        : Initial AUTO-CI
   Lucas Lang             : DCDCAS
   Marvin Lechner         : AUTO-CI (C++ implementation), FIC-MRCC
   Dagmar Lenk            : GEPOL surface, SMD
   Dimitrios Liakos       : Extrapolation schemes; Compound Job, initial MDCI parallelization
   Dimitrios Manganas     : Further ROCIS development; embedding schemes
   Dimitrios Pantazis     : SARC Basis sets
   Anastasios Papadopoulos: AUTO-CI, single reference methods and gradients
   Taras Petrenko         : DFT Hessian,TD-DFT gradient, ASA, ECA, R-Raman, ABS, FL, XAS/XES, NRVS
   Peter Pinski           : DLPNO-MP2, DLPNO-MP2 Gradient
   Christoph Reimann      : Effective Core Potentials
   Marius Retegan         : Local ZFS, SOC
   Christoph Riplinger    : Optimizer, TS searches, QM/MM, DLPNO-CCSD(T), (RO)-DLPNO pert. Triples
   Tobias Risthaus        : Range-separated hybrids, TD-DFT gradient, RPA, STAB
   Michael Roemelt        : Original ROCIS implementation
   Masaaki Saitow         : Open-shell DLPNO-CCSD energy and density
   Barbara Sandhoefer     : DKH picture change effects
   Avijit Sen             : IP-ROCIS
   Kantharuban Sivalingam : CASSCF convergence, NEVPT2, FIC-MRCI
   Bernardo de Souza      : ESD, SOC TD-DFT
   Georgi Stoychev        : AutoAux, RI-MP2 NMR, DLPNO-MP2 response
   Willem Van den Heuvel  : Paramagnetic NMR
   Boris Wezisla          : Elementary symmetry handling
   Frank Wennmohs         : Technical directorship


 We gratefully acknowledge several colleagues who have allowed us to
 interface, adapt or use parts of their codes:
   Stefan Grimme, W. Hujo, H. Kruse, P. Pracht,  : VdW corrections, initial TS optimization,
                  C. Bannwarth, S. Ehlert          DFT functionals, gCP, sTDA/sTD-DF
   Ed Valeev, F. Pavosevic, A. Kumar             : LibInt (2-el integral package), F12 methods
   Garnet Chan, S. Sharma, J. Yang, R. Olivares  : DMRG
   Ulf Ekstrom                                   : XCFun DFT Library
   Mihaly Kallay                                 : mrcc  (arbitrary order and MRCC methods)
   Jiri Pittner, Ondrej Demel                    : Mk-CCSD
   Frank Weinhold                                : gennbo (NPA and NBO analysis)
   Christopher J. Cramer and Donald G. Truhlar   : smd solvation model
   Lars Goerigk                                  : TD-DFT with DH, B97 family of functionals
   V. Asgeirsson, H. Jonsson                     : NEB implementation
   FAccTs GmbH                                   : IRC, NEB, NEB-TS, DLPNO-Multilevel, CI-OPT
                                                   MM, QMMM, 2- and 3-layer-ONIOM, Crystal-QMMM,
                                                   LR-CPCM, SF, NACMEs, symmetry and pop. for TD-DFT,
                                                   nearIR, NL-DFT gradient (VV10), updates on ESD,
                                                   ML-optimized integration grids
   S Lehtola, MJT Oliveira, MAL Marques          : LibXC Library
   Liviu Ungur et al                             : ANISO software


 Your calculation uses the libint2 library for the computation of 2-el integrals
 For citations please refer to: http://libint.valeyev.net

 Your ORCA version has been built with support for libXC version: 5.1.0
 For citations please refer to: https://tddft.org/programs/libxc/

 This ORCA versions uses:
   CBLAS   interface :  Fast vector & matrix operations
   LAPACKE interface :  Fast linear algebra routines
   SCALAPACK package :  Parallel linear algebra routines
   Shared memory     :  Shared parallel matrices
   BLAS/LAPACK       :  OpenBLAS 0.3.15  USE64BITINT DYNAMIC_ARCH NO_AFFINITY SkylakeX SINGLE_THREADED
        Core in use  :  SkylakeX
   Copyright (c) 2011-2014, The OpenBLAS Project


================================================================================

----- Orbital basis set information -----
Your calculation utilizes the basis: EPR-III
   V. Barone, in Recent Advances in Density Functional Methods, Part 1 (ed. D. P. Chong), World Scientific, Singapore, 1995, p. 287.
   N. Rega, M. Cossi and V. Barone, J. Chem. Phys. 105, 11060 (1996).

----- AuxJ basis set information -----
Your calculation utilizes the AutoAux generation procedure.
  G. L. Stoychev, A. A. Auer, F. Neese, J. Chem. Theory Comput. 13, 554 (2017)

----- AuxC basis set information -----
Your calculation utilizes the AutoAux generation procedure.
  G. L. Stoychev, A. A. Auer, F. Neese, J. Chem. Theory Comput. 13, 554 (2017)

----- AuxJK basis set information -----
Your calculation utilizes the AutoAux generation procedure.
  G. L. Stoychev, A. A. Auer, F. Neese, J. Chem. Theory Comput. 13, 554 (2017)

================================================================================
                                        WARNINGS
                       Please study these warnings very carefully!
================================================================================


WARNING: your system is open-shell and RHF/RKS was chosen
  ===> : WILL SWITCH to UHF/UKS


INFO   : the flag for use of the SHARK integral package has been found!

================================================================================
                                       INPUT FILE
================================================================================
NAME = /home/rwth0701/scratch/cs681498/orcajob__30556450-SvKk/13736.inp
|  1> !B3LYP EPR-III Autoaux
|  2> !PAL4
|  3> 
|  4> * xyz 0 2
|  5>  C    -60.7106187866    -83.1820116113    -25.8534611918
|  6>  H    -61.7880390186    -83.3146890210    -25.8429302951
|  7>  H    -60.0890997292    -84.0288676225    -25.9681793242
|  8>  H    -60.3613668500    -82.1237649475    -25.7682981791
|  9> *
| 10> 
| 11> %EPRNMR
| 12>         GTENSOR   TRUE
| 13>         NUCLEI    = ALL H {AISO, ADIP, AORB}
| 14>         NUCLEI    = ALL C {AISO, ADIP, AORB}
| 15> END
| 16> 
| 17> 
| 18>                          ****END OF INPUT****
================================================================================

                       ****************************
                       * Single Point Calculation *
                       ****************************

---------------------------------
CARTESIAN COORDINATES (ANGSTROEM)
---------------------------------
  C    -60.710619  -83.182012  -25.853461
  H    -61.788039  -83.314689  -25.842930
  H    -60.089100  -84.028868  -25.968179
  H    -60.361367  -82.123765  -25.768298

----------------------------
CARTESIAN COORDINATES (A.U.)
----------------------------
  NO LB      ZA    FRAG     MASS         X           Y           Z
   0 C     6.0000    0    12.011  -114.726443  -157.191221  -48.855961
   1 H     1.0000    0     1.008  -116.762472  -157.441945  -48.836061
   2 H     1.0000    0     1.008  -113.551942  -158.791547  -49.072747
   3 H     1.0000    0     1.008  -114.066452  -155.191425  -48.695026

--------------------------------
INTERNAL COORDINATES (ANGSTROEM)
--------------------------------
 C      0   0   0     0.000000000000     0.00000000     0.00000000
 H      1   0   0     1.085609760067     0.00000000     0.00000000
 H      1   2   0     1.056698297679   119.13322557     0.00000000
 H      1   2   3     1.117638427845   115.15791668   178.26364158

---------------------------
INTERNAL COORDINATES (A.U.)
---------------------------
 C      0   0   0     0.000000000000     0.00000000     0.00000000
 H      1   0   0     2.051505134839     0.00000000     0.00000000
 H      1   2   0     1.996870388795   119.13322557     0.00000000
 H      1   2   3     2.112030545372   115.15791668   178.26364158

---------------------
BASIS SET INFORMATION
---------------------
There are 2 groups of distinct atoms

 Group   1 Type C   : 12s8p2d1f contracted to 8s5p2d1f pattern {51111111/41111/11/1}
 Group   2 Type H   : 7s2p contracted to 5s2p pattern {31111/11}

Atom   0C    basis set group =>   1
Atom   1H    basis set group =>   2
Atom   2H    basis set group =>   2
Atom   3H    basis set group =>   2
---------------------------------
AUXILIARY/J BASIS SET INFORMATION
---------------------------------
There are 2 groups of distinct atoms

 Group   1 Type C   : 20s17p16d8f3g contracted to 20s17p16d8f3g pattern {11111111111111111111/11111111111111111/1111111111111111/11111111/111}
 Group   2 Type H   : 17s7p3d contracted to 17s7p3d pattern {11111111111111111/1111111/111}

Atom   0C    basis set group =>   1
Atom   1H    basis set group =>   2
Atom   2H    basis set group =>   2
Atom   3H    basis set group =>   2
---------------------------------
AUXILIARY/C BASIS SET INFORMATION
---------------------------------
There are 2 groups of distinct atoms

 Group   1 Type C   : 20s17p16d8f3g contracted to 20s17p16d8f3g pattern {11111111111111111111/11111111111111111/1111111111111111/11111111/111}
 Group   2 Type H   : 17s7p3d contracted to 17s7p3d pattern {11111111111111111/1111111/111}

Atom   0C    basis set group =>   1
Atom   1H    basis set group =>   2
Atom   2H    basis set group =>   2
Atom   3H    basis set group =>   2
----------------------------------
AUXILIARY/JK BASIS SET INFORMATION
----------------------------------
There are 2 groups of distinct atoms

 Group   1 Type C   : 20s17p16d8f3g contracted to 20s17p16d8f3g pattern {11111111111111111111/11111111111111111/1111111111111111/11111111/111}
 Group   2 Type H   : 17s7p3d contracted to 17s7p3d pattern {11111111111111111/1111111/111}

Atom   0C    basis set group =>   1
Atom   1H    basis set group =>   2
Atom   2H    basis set group =>   2
Atom   3H    basis set group =>   2


           ************************************************************
           *        Program running with 4 parallel MPI-processes     *
           *              working on a common directory               *
           ************************************************************
------------------------------------------------------------------------------
                           ORCA GTO INTEGRAL CALCULATION
                           -- RI-GTO INTEGRALS CHOSEN --
------------------------------------------------------------------------------
------------------------------------------------------------------------------
                   ___                                                        
                  /   \      - P O W E R E D   B Y -                         
                 /     \                                                     
                 |  |  |   _    _      __       _____    __    __             
                 |  |  |  | |  | |    /  \     |  _  \  |  |  /  |          
                  \  \/   | |  | |   /    \    | | | |  |  | /  /          
                 / \  \   | |__| |  /  /\  \   | |_| |  |  |/  /          
                |  |  |   |  __  | /  /__\  \  |    /   |      \           
                |  |  |   | |  | | |   __   |  |    \   |  |\   \          
                \     /   | |  | | |  |  |  |  | |\  \  |  | \   \       
                 \___/    |_|  |_| |__|  |__|  |_| \__\ |__|  \__/        
                                                                              
                      - O R C A' S   B I G   F R I E N D -                    
                                      &                                       
                       - I N T E G R A L  F E E D E R -                       
                                                                              
 v1 FN, 2020, v2 2021                                                         
------------------------------------------------------------------------------


Reading SHARK input file /home/rwth0701/scratch/cs681498/orcajob__30556450-SvKk/13736.SHARKINP.tmp ... ok
----------------------
SHARK INTEGRAL PACKAGE
----------------------

Number of atoms                             ...      4
Number of basis functions                   ...     73
Number of shells                            ...     37
Maximum angular momentum                    ...      3
Integral batch strategy                     ... SHARK/LIBINT Hybrid
RI-J (if used) integral strategy            ... SPLIT-RIJ (Revised 2003 algorithm where possible)
Printlevel                                  ...      1
Contraction scheme used                     ... SEGMENTED contraction
Coulomb Range Separation                    ... NOT USED
Exchange Range Separation                   ... NOT USED
Finite Nucleus Model                        ... NOT USED
Auxiliary Coulomb fitting basis             ... AVAILABLE
   # of basis functions in Aux-J            ...    393
   # of shells in Aux-J                     ...    145
   Maximum angular momentum in Aux-J        ...      4
Auxiliary J/K fitting basis                 ... AVAILABLE
   # of basis functions in Aux-JK           ...    393
   # of shells in Aux-JK                    ...    145
   Maximum angular momentum in Aux-JK       ...      4
Auxiliary Correlation fitting basis         ... AVAILABLE
   # of basis functions in Aux-C            ...    393
   # of shells in Aux-C                     ...    145
   Maximum angular momentum in Aux-C        ...      4
Auxiliary 'external' fitting basis          ... NOT available
Integral threshold                          ...     1.000000e-10
Primitive cut-off                           ...     1.000000e-11
Primitive pair pre-selection threshold      ...     1.000000e-11

Calculating pre-screening integrals         ... done (  0.0 sec) Dimension = 37
Organizing shell pair data                  ... done (  0.0 sec)
Shell pair information
Total number of shell pairs                 ...       703
Shell pairs after pre-screening             ...       688
Total number of primitive shell pairs       ...      1300
Primitive shell pairs kept                  ...      1183
          la=0 lb=0:    261 shell pairs
          la=1 lb=0:    253 shell pairs
          la=1 lb=1:     66 shell pairs
          la=2 lb=0:     46 shell pairs
          la=2 lb=1:     22 shell pairs
          la=2 lb=2:      3 shell pairs
          la=3 lb=0:     23 shell pairs
          la=3 lb=1:     11 shell pairs
          la=3 lb=2:      2 shell pairs
          la=3 lb=3:      1 shell pairs

Calculating one electron integrals          ... done (  0.0 sec)
Calculating RI/J V-Matrix + Cholesky decomp.... done (  0.1 sec)
Calculating RI/JK V-Matrix + Cholesky decomp... done (  0.2 sec)
Calculating RI/C V-Matrix + Cholesky decomp.... done (  0.1 sec)
Calculating Nuclear repulsion               ... done (  0.0 sec) ENN=      9.614748501207 Eh

SHARK setup successfully completed in   0.8 seconds

Maximum memory used throughout the entire GTOINT-calculation: 13.7 MB


           ************************************************************
           *        Program running with 4 parallel MPI-processes     *
           *              working on a common directory               *
           ************************************************************
-------------------------------------------------------------------------------
                                 ORCA SCF
-------------------------------------------------------------------------------

------------
SCF SETTINGS
------------
Hamiltonian:
 Density Functional     Method          .... DFT(GTOs)
 Exchange Functional    Exchange        .... B88
   X-Alpha parameter    XAlpha          ....  0.666667
   Becke's b parameter  XBeta           ....  0.004200
 Correlation Functional Correlation     .... LYP
 LDA part of GGA corr.  LDAOpt          .... VWN-5
 Gradients option       PostSCFGGA      .... off
 Hybrid DFT is turned on
   Fraction HF Exchange ScalHFX         ....  0.200000
   Scaling of DF-GGA-X  ScalDFX         ....  0.720000
   Scaling of DF-GGA-C  ScalDFC         ....  0.810000
   Scaling of DF-LDA-C  ScalLDAC        ....  1.000000
   Perturbative correction              ....  0.000000
   Density functional embedding theory  .... OFF
   NL short-range parameter             ....  4.800000
 RI-approximation to the Coulomb term is turned on
   Number of AuxJ basis functions       .... 393
   RIJ-COSX (HFX calculated with COS-X)).... on


General Settings:
 Integral files         IntName         .... /home/rwth0701/scratch/cs681498/orcajob__30556450-SvKk/13736
 Hartree-Fock type      HFTyp           .... UHF
 Total Charge           Charge          ....    0
 Multiplicity           Mult            ....    2
 Number of Electrons    NEL             ....    9
 Basis Dimension        Dim             ....   73
 Nuclear Repulsion      ENuc            ....      9.6147485012 Eh

Convergence Acceleration:
 DIIS                   CNVDIIS         .... on
   Start iteration      DIISMaxIt       ....    12
   Startup error        DIISStart       ....  0.200000
   # of expansion vecs  DIISMaxEq       ....     5
   Bias factor          DIISBfac        ....   1.050
   Max. coefficient     DIISMaxC        ....  10.000
 Trust-Rad. Augm. Hess. CNVTRAH         .... auto
   Auto Start mean grad. ratio tolernc. ....  1.125000
   Auto Start start iteration           ....    20
   Auto Start num. interpolation iter.  ....    10
   Max. Number of Micro iterations      ....    16
   Max. Number of Macro iterations      .... Maxiter - #DIIS iter
   Number of Davidson start vectors     ....     2
   Converg. threshold I  (grad. norm)   ....   5.000e-05
   Converg. threshold II (energy diff.) ....   1.000e-06
   Grad. Scal. Fac. for Micro threshold ....   0.100
   Minimum threshold for Micro iter.    ....   0.010
   NR start threshold (gradient norm)   ....   0.001
   Initial trust radius                 ....   0.400
   Minimum AH scaling param. (alpha)    ....   1.000
   Maximum AH scaling param. (alpha)    .... 1000.000
   Orbital update algorithm             .... Taylor
   White noise on init. David. guess    .... on
   Maximum white noise                  ....   0.010
   Quad. conv. algorithm                .... NR
 SOSCF                  CNVSOSCF        .... off
 Level Shifting         CNVShift        .... on
   Level shift para.    LevelShift      ....    0.2500
   Turn off err/grad.   ShiftErr        ....    0.0010
 Zerner damping         CNVZerner       .... off
 Static damping         CNVDamp         .... on
   Fraction old density DampFac         ....    0.7000
   Max. Damping (<1)    DampMax         ....    0.9800
   Min. Damping (>=0)   DampMin         ....    0.0000
   Turn off err/grad.   DampErr         ....    0.1000
 Fernandez-Rico         CNVRico         .... off

SCF Procedure:
 Maximum # iterations   MaxIter         ....   125
 SCF integral mode      SCFMode         .... Direct
   Integral package                     .... SHARK and LIBINT hybrid scheme
 Reset frequency        DirectResetFreq ....    20
 Integral Threshold     Thresh          ....  1.000e-10 Eh
 Primitive CutOff       TCut            ....  1.000e-11 Eh

Convergence Tolerance:
 Convergence Check Mode ConvCheckMode   .... Total+1el-Energy
 Convergence forced     ConvForced      .... 0
 Energy Change          TolE            ....  1.000e-06 Eh
 1-El. energy change                    ....  1.000e-03 Eh
 DIIS Error             TolErr          ....  1.000e-06


Diagonalization of the overlap matrix:
Smallest eigenvalue                        ... 1.620e-03
Time for diagonalization                   ...    0.001 sec
Threshold for overlap eigenvalues          ... 1.000e-08
Number of eigenvalues below threshold      ... 0
Time for construction of square roots      ...    0.017 sec
Total time needed                          ...    0.018 sec

Time for model grid setup =    0.071 sec

------------------------------
INITIAL GUESS: MODEL POTENTIAL
------------------------------
Loading Hartree-Fock densities                     ... done
Calculating cut-offs                               ... done
Initializing the effective Hamiltonian             ... done
Setting up the integral package (SHARK)            ... done
Starting the Coulomb interaction                   ... done (   0.0 sec)
Reading the grid                                   ... done
Mapping shells                                     ... done
Starting the XC term evaluation                    ... done (   0.0 sec)
  promolecular density results
     # of electrons  =      8.998715885
     EX              =     -5.967749278
     EC              =     -0.260114757
     EX+EC           =     -6.227864034
Transforming the Hamiltonian                       ... done (   0.0 sec)
Diagonalizing the Hamiltonian                      ... done (   0.0 sec)
Back transforming the eigenvectors                 ... done (   0.0 sec)
Now organizing SCF variables                       ... done
                      ------------------
                      INITIAL GUESS DONE (   0.1 sec)
                      ------------------
-------------------
DFT GRID GENERATION
-------------------

General Integration Accuracy     IntAcc      ... 4.388
Radial Grid Type                 RadialGrid  ... OptM3 with GC (2021)
Angular Grid (max. ang.)         AngularGrid ... 4 (Lebedev-302)
Angular grid pruning method      GridPruning ... 4 (adaptive)
Weight generation scheme         WeightScheme... Becke
Basis function cutoff            BFCut       ... 1.0000e-10
Integration weight cutoff        WCut        ... 1.0000e-14
Angular grids for H and He will be reduced by one unit
Partially contracted basis set               ... off
Rotationally invariant grid construction     ... off

Total number of grid points                  ...    17044
Total number of batches                      ...      269
Average number of points per batch           ...       63
Average number of grid points per atom       ...     4261
Time for grid setup =    0.172 sec

--------------------
COSX GRID GENERATION
--------------------

GRIDX 1
-------
General Integration Accuracy     IntAcc      ... 3.816
Radial Grid Type                 RadialGrid  ... OptM3 with GC (2021)
Angular Grid (max. ang.)         AngularGrid ... 1 (Lebedev-50)
Angular grid pruning method      GridPruning ... 4 (adaptive)
Weight generation scheme         WeightScheme... Becke
Basis function cutoff            BFCut       ... 1.0000e-10
Integration weight cutoff        WCut        ... 1.0000e-14
Angular grids for H and He will be reduced by one unit
Partially contracted basis set               ... on
Rotationally invariant grid construction     ... off

Total number of grid points                  ...     2145
Total number of batches                      ...       35
Average number of points per batch           ...       61
Average number of grid points per atom       ...      536
UseSFitting                                  ... on

GRIDX 2
-------
General Integration Accuracy     IntAcc      ... 4.020
Radial Grid Type                 RadialGrid  ... OptM3 with GC (2021)
Angular Grid (max. ang.)         AngularGrid ... 2 (Lebedev-110)
Angular grid pruning method      GridPruning ... 4 (adaptive)
Weight generation scheme         WeightScheme... Becke
Basis function cutoff            BFCut       ... 1.0000e-10
Integration weight cutoff        WCut        ... 1.0000e-14
Angular grids for H and He will be reduced by one unit
Partially contracted basis set               ... on
Rotationally invariant grid construction     ... off

Total number of grid points                  ...     5052
Total number of batches                      ...       82
Average number of points per batch           ...       61
Average number of grid points per atom       ...     1263
UseSFitting                                  ... on

GRIDX 3
-------
General Integration Accuracy     IntAcc      ... 4.338
Radial Grid Type                 RadialGrid  ... OptM3 with GC (2021)
Angular Grid (max. ang.)         AngularGrid ... 3 (Lebedev-194)
Angular grid pruning method      GridPruning ... 4 (adaptive)
Weight generation scheme         WeightScheme... Becke
Basis function cutoff            BFCut       ... 1.0000e-10
Integration weight cutoff        WCut        ... 1.0000e-14
Angular grids for H and He will be reduced by one unit
Partially contracted basis set               ... on
Rotationally invariant grid construction     ... off

Total number of grid points                  ...    11717
Total number of batches                      ...      185
Average number of points per batch           ...       63
Average number of grid points per atom       ...     2929
UseSFitting                                  ... on

Time for X-Grid setup             =    0.347 sec

--------------
SCF ITERATIONS
--------------
ITER       Energy         Delta-E        Max-DP      RMS-DP      [F,P]     Damp
               ***  Starting incremental Fock matrix formation  ***
  0    -39.7854894946   0.000000000000 0.01522624  0.00049716  0.0893784 0.7000
  1    -39.8039726796  -0.018483184946 0.00953794  0.00037096  0.0471732 0.7000
                               ***Turning on DIIS***
  2    -39.8121575864  -0.008184906772 0.01550131  0.00064684  0.0192546 0.0000
  3    -39.8233497557  -0.011192169291 0.00859600  0.00027948  0.0282094 0.0000
  4    -39.8267653512  -0.003415595532 0.00302445  0.00007842  0.0058231 0.0000
  5    -39.8269042733  -0.000138922067 0.00107867  0.00003266  0.0019288 0.0000
  6    -39.8269215614  -0.000017288167 0.00089420  0.00002515  0.0008177 0.0000
               *** Restarting incremental Fock matrix formation ***
                                   *** Resetting DIIS ***
  7    -39.8269290386  -0.000007477187 0.00008387  0.00000295  0.0000912 0.0000
                 **** Energy Check signals convergence ****

               *****************************************************
               *                     SUCCESS                       *
               *           SCF CONVERGED AFTER   8 CYCLES          *
               *****************************************************

Old exchange energy                            =     -1.239791356 Eh
New exchange energy                            =     -1.239791702 Eh
Exchange energy change after final integration =     -0.000000346 Eh
Total energy after final integration           =    -39.826929452 Eh
Final COS-X integration done in                =     0.190 sec

----------------
TOTAL SCF ENERGY
----------------

Total Energy       :          -39.82692945 Eh           -1083.74585 eV

Components:
Nuclear Repulsion  :            9.61474850 Eh             261.63061 eV
Electronic Energy  :          -49.44167795 Eh           -1345.37645 eV
One Electron Energy:          -71.54101779 Eh           -1946.73006 eV
Two Electron Energy:           22.09933984 Eh             601.35361 eV
Max COSX asymmetry :            0.00000003 Eh               0.00000 eV

Virial components:
Potential Energy   :          -79.42489845 Eh           -2161.26136 eV
Kinetic Energy     :           39.59796900 Eh            1077.51552 eV
Virial Ratio       :            2.00578213


DFT components:
N(Alpha)           :        4.999999006146 electrons
N(Beta)            :        4.000000174000 electrons
N(Total)           :        8.999999180147 electrons
E(X)               :       -4.907427828746 Eh       
E(C)               :       -0.309350356469 Eh       
E(XC)              :       -5.216778185215 Eh       
DFET-embed. en.    :        0.000000000000 Eh       

---------------
SCF CONVERGENCE
---------------

  Last Energy change         ...   -6.8316e-08  Tolerance :   1.0000e-06
  Last MAX-Density change    ...    0.0000e+00  Tolerance :   1.0000e-05
  Last RMS-Density change    ...    0.0000e+00  Tolerance :   1.0000e-06
  Last DIIS Error            ...    6.5975e-05  Tolerance :   1.0000e-06

             **** THE GBW FILE WAS UPDATED (/home/rwth0701/scratch/cs681498/orcajob__30556450-SvKk/13736.gbw) ****
             **** DENSITY /home/rwth0701/scratch/cs681498/orcajob__30556450-SvKk/13736.scfp WAS UPDATED ****
             **** ENERGY FILE WAS UPDATED (/home/rwth0701/scratch/cs681498/orcajob__30556450-SvKk/13736.en.tmp) ****
----------------------
UHF SPIN CONTAMINATION
----------------------

Warning: in a DFT calculation there is little theoretical justification to 
         calculate <S**2> as in Hartree-Fock theory. We will do it anyways
         but you should keep in mind that the values have only limited relevance

Expectation value of <S**2>     :     0.753699
Ideal value S*(S+1) for S=0.5   :     0.750000
Deviation                       :     0.003699

             **** THE GBW FILE WAS UPDATED (/home/rwth0701/scratch/cs681498/orcajob__30556450-SvKk/13736.gbw) ****
             **** DENSITY /home/rwth0701/scratch/cs681498/orcajob__30556450-SvKk/13736.scfp WAS UPDATED ****
----------------
ORBITAL ENERGIES
----------------
                 SPIN UP ORBITALS
  NO   OCC          E(Eh)            E(eV) 
   0   1.0000     -10.186100      -277.1779 
   1   1.0000      -0.686114       -18.6701 
   2   1.0000      -0.432024       -11.7560 
   3   1.0000      -0.410715       -11.1761 
   4   1.0000      -0.234767        -6.3883 
   5   0.0000       0.000771         0.0210 
   6   0.0000       0.035644         0.9699 
   7   0.0000       0.037794         1.0284 
   8   0.0000       0.047460         1.2915 
   9   0.0000       0.085787         2.3344 
  10   0.0000       0.093250         2.5375 
  11   0.0000       0.096122         2.6156 
  12   0.0000       0.220919         6.0115 
  13   0.0000       0.224743         6.1156 
  14   0.0000       0.247673         6.7395 
  15   0.0000       0.276088         7.5127 
  16   0.0000       0.295848         8.0504 
  17   0.0000       0.315907         8.5963 
  18   0.0000       0.340479         9.2649 
  19   0.0000       0.552801        15.0425 
  20   0.0000       0.563163        15.3244 
  21   0.0000       0.738565        20.0974 
  22   0.0000       0.746073        20.3017 
  23   0.0000       0.768770        20.9193 
  24   0.0000       0.831706        22.6319 
  25   0.0000       0.885715        24.1015 
  26   0.0000       0.892954        24.2985 
  27   0.0000       0.940800        25.6005 
  28   0.0000       0.959110        26.0987 
  29   0.0000       1.058068        28.7915 
  30   0.0000       1.070613        29.1329 
  31   0.0000       1.108388        30.1608 
  32   0.0000       1.162858        31.6430 
  33   0.0000       1.166482        31.7416 
  34   0.0000       1.458852        39.6974 
  35   0.0000       1.473664        40.1004 
  36   0.0000       1.504841        40.9488 
  37   0.0000       1.707293        46.4578 
  38   0.0000       1.722224        46.8641 
  39   0.0000       1.752863        47.6978 
  40   0.0000       2.715643        73.8964 
  41   0.0000       2.730893        74.3114 
  42   0.0000       2.879399        78.3524 
  43   0.0000       2.896083        78.8064 
  44   0.0000       2.940364        80.0114 
  45   0.0000       2.960323        80.5545 
  46   0.0000       2.984007        81.1990 
  47   0.0000       3.158329        85.9425 
  48   0.0000       3.171584        86.3032 
  49   0.0000       3.246532        88.3426 
  50   0.0000       3.255030        88.5739 
  51   0.0000       3.714424       101.0746 
  52   0.0000       3.727953       101.4427 
  53   0.0000       3.825047       104.0848 
  54   0.0000       3.888022       105.7985 
  55   0.0000       3.964003       107.8660 
  56   0.0000       4.035551       109.8129 
  57   0.0000       4.126431       112.2859 
  58   0.0000       4.145019       112.7917 
  59   0.0000       4.147850       112.8687 
  60   0.0000       4.648506       126.4923 
  61   0.0000       4.995827       135.9434 
  62   0.0000       5.333768       145.1392 
  63   0.0000       5.408534       147.1737 
  64   0.0000       5.535319       150.6237 
  65   0.0000       6.066152       165.0684 
  66   0.0000       6.150312       167.3585 
  67   0.0000       7.731825       210.3937 
  68   0.0000      29.066656       790.9439 
  69   0.0000      37.106138      1009.7093 
  70   0.0000      37.207731      1012.4738 
  71   0.0000      37.230243      1013.0864 
  72   0.0000     133.522922      3633.3434 

                 SPIN DOWN ORBITALS
  NO   OCC          E(Eh)            E(eV) 
   0   1.0000     -10.171632      -276.7842 
   1   1.0000      -0.646594       -17.5947 
   2   1.0000      -0.422631       -11.5004 
   3   1.0000      -0.401305       -10.9201 
   4   0.0000      -0.077265        -2.1025 
   5   0.0000       0.003969         0.1080 
   6   0.0000       0.035292         0.9603 
   7   0.0000       0.037407         1.0179 
   8   0.0000       0.060736         1.6527 
   9   0.0000       0.087522         2.3816 
  10   0.0000       0.095971         2.6115 
  11   0.0000       0.098567         2.6821 
  12   0.0000       0.222120         6.0442 
  13   0.0000       0.225971         6.1490 
  14   0.0000       0.267147         7.2694 
  15   0.0000       0.301399         8.2015 
  16   0.0000       0.310542         8.4503 
  17   0.0000       0.320676         8.7260 
  18   0.0000       0.354200         9.6383 
  19   0.0000       0.579417        15.7667 
  20   0.0000       0.590368        16.0647 
  21   0.0000       0.740024        20.1371 
  22   0.0000       0.747434        20.3387 
  23   0.0000       0.795608        21.6496 
  24   0.0000       0.830042        22.5866 
  25   0.0000       0.889186        24.1960 
  26   0.0000       0.897662        24.4266 
  27   0.0000       0.958617        26.0853 
  28   0.0000       0.978383        26.6231 
  29   0.0000       1.086404        29.5625 
  30   0.0000       1.122463        30.5438 
  31   0.0000       1.131711        30.7954 
  32   0.0000       1.175792        31.9949 
  33   0.0000       1.178390        32.0656 
  34   0.0000       1.473245        40.0890 
  35   0.0000       1.486999        40.4633 
  36   0.0000       1.514363        41.2079 
  37   0.0000       1.711011        46.5590 
  38   0.0000       1.732178        47.1350 
  39   0.0000       1.760493        47.9055 
  40   0.0000       2.756542        75.0093 
  41   0.0000       2.771448        75.4149 
  42   0.0000       2.883171        78.4551 
  43   0.0000       2.938619        79.9639 
  44   0.0000       2.964426        80.6661 
  45   0.0000       2.980933        81.1153 
  46   0.0000       3.037618        82.6578 
  47   0.0000       3.210064        87.3503 
  48   0.0000       3.222171        87.6797 
  49   0.0000       3.304261        89.9135 
  50   0.0000       3.313600        90.1676 
  51   0.0000       3.727652       101.4346 
  52   0.0000       3.774687       102.7145 
  53   0.0000       3.823591       104.0452 
  54   0.0000       3.889470       105.8378 
  55   0.0000       3.978258       108.2539 
  56   0.0000       4.051453       110.2456 
  57   0.0000       4.129458       112.3683 
  58   0.0000       4.151342       112.9638 
  59   0.0000       4.170469       113.4842 
  60   0.0000       4.648599       126.4948 
  61   0.0000       5.018177       136.5515 
  62   0.0000       5.332776       145.1122 
  63   0.0000       5.407159       147.1363 
  64   0.0000       5.532218       150.5393 
  65   0.0000       6.068431       165.1304 
  66   0.0000       6.153451       167.4439 
  67   0.0000       7.767054       211.3523 
  68   0.0000      29.093518       791.6749 
  69   0.0000      37.094064      1009.3808 
  70   0.0000      37.195764      1012.1482 
  71   0.0000      37.218562      1012.7686 
  72   0.0000     133.530803      3633.5579 

                    ********************************
                    * MULLIKEN POPULATION ANALYSIS *
                    ********************************

--------------------------------------------
MULLIKEN ATOMIC CHARGES AND SPIN POPULATIONS
--------------------------------------------
   0 C :   -0.427436    1.104437
   1 H :    0.137894   -0.035120
   2 H :    0.148294   -0.032361
   3 H :    0.141248   -0.036956
Sum of atomic charges         :    0.0000000
Sum of atomic spin populations:    1.0000000

-----------------------------------------------------
MULLIKEN REDUCED ORBITAL CHARGES AND SPIN POPULATIONS
-----------------------------------------------------
CHARGE
  0 C s       :     3.335998  s :     3.335998
      pz      :     0.969105  p :     3.064668
      px      :     1.051294
      py      :     1.044269
      dz2     :     0.005633  d :     0.023774
      dxz     :     0.000114
      dyz     :     0.000300
      dx2y2   :     0.010318
      dxy     :     0.007409
      f0      :     0.000056  f :     0.002995
      f+1     :     0.000648
      f-1     :     0.000675
      f+2     :     0.000023
      f-2     :     0.000050
      f+3     :     0.001260
      f-3     :     0.000283
  1 H s       :     0.835865  s :     0.835865
      pz      :     0.010303  p :     0.026241
      px      :     0.009642
      py      :     0.006296
  2 H s       :     0.823534  s :     0.823534
      pz      :     0.011303  p :     0.028172
      px      :     0.007792
      py      :     0.009077
  3 H s       :     0.833370  s :     0.833370
      pz      :     0.010009  p :     0.025382
      px      :     0.006172
      py      :     0.009201

SPIN
  0 C s       :     0.067251  s :     0.067251
      pz      :     0.957930  p :     1.041522
      px      :     0.037280
      py      :     0.046312
      dz2     :    -0.004605  d :    -0.002986
      dxz     :    -0.000008
      dyz     :    -0.000142
      dx2y2   :     0.001069
      dxy     :     0.000701
      f0      :    -0.000036  f :    -0.001350
      f+1     :    -0.000611
      f-1     :    -0.000604
      f+2     :    -0.000018
      f-2     :    -0.000019
      f+3     :    -0.000052
      f-3     :    -0.000009
  1 H s       :    -0.044921  s :    -0.044921
      pz      :     0.010231  p :     0.009800
      px      :    -0.000129
      py      :    -0.000302
  2 H s       :    -0.043357  s :    -0.043357
      pz      :     0.011173  p :     0.010997
      px      :    -0.000209
      py      :     0.000032
  3 H s       :    -0.046599  s :    -0.046599
      pz      :     0.009932  p :     0.009643
      px      :    -0.000289
      py      :     0.000001


                     *******************************
                     * LOEWDIN POPULATION ANALYSIS *
                     *******************************

-------------------------------------------
LOEWDIN ATOMIC CHARGES AND SPIN POPULATIONS
-------------------------------------------
   0 C :   -0.154797    0.910167
   1 H :    0.050564    0.030238
   2 H :    0.037743    0.034799
   3 H :    0.066490    0.024796

----------------------------------------------------
LOEWDIN REDUCED ORBITAL CHARGES AND SPIN POPULATIONS
----------------------------------------------------
CHARGE
  0 C s       :     2.886291  s :     2.886291
      pz      :     0.876778  p :     3.169844
      px      :     1.152037
      py      :     1.141028
      dz2     :     0.006957  d :     0.091159
      dxz     :     0.000459
      dyz     :     0.000731
      dx2y2   :     0.047096
      dxy     :     0.035916
      f0      :     0.000313  f :     0.007503
      f+1     :     0.001865
      f-1     :     0.001927
      f+2     :     0.000062
      f-2     :     0.000119
      f+3     :     0.002587
      f-3     :     0.000630
  1 H s       :     0.805167  s :     0.805167
      pz      :     0.041940  p :     0.144269
      px      :     0.070426
      py      :     0.031903
  2 H s       :     0.809122  s :     0.809122
      pz      :     0.045953  p :     0.153134
      px      :     0.048246
      py      :     0.058935
  3 H s       :     0.799609  s :     0.799609
      pz      :     0.038456  p :     0.133901
      px      :     0.032276
      py      :     0.063169

SPIN
  0 C s       :     0.019528  s :     0.019528
      pz      :     0.864248  p :     0.899475
      px      :     0.013994
      py      :     0.021234
      dz2     :    -0.003979  d :    -0.007508
      dxz     :    -0.000031
      dyz     :    -0.000155
      dx2y2   :    -0.001952
      dxy     :    -0.001391
      f0      :     0.000134  f :    -0.001329
      f+1     :    -0.000563
      f-1     :    -0.000547
      f+2     :    -0.000017
      f-2     :    -0.000022
      f+3     :    -0.000254
      f-3     :    -0.000059
  1 H s       :    -0.016798  s :    -0.016798
      pz      :     0.041605  p :     0.047036
      px      :     0.004473
      py      :     0.000958
  2 H s       :    -0.016225  s :    -0.016225
      pz      :     0.045131  p :     0.051024
      px      :     0.001995
      py      :     0.003898
  3 H s       :    -0.018613  s :    -0.018613
      pz      :     0.037985  p :     0.043409
      px      :     0.000791
      py      :     0.004633


                      *****************************
                      * MAYER POPULATION ANALYSIS *
                      *****************************

  NA   - Mulliken gross atomic population
  ZA   - Total nuclear charge
  QA   - Mulliken gross atomic charge
  VA   - Mayer's total valence
  BVA  - Mayer's bonded valence
  FA   - Mayer's free valence

  ATOM       NA         ZA         QA         VA         BVA        FA
  0 C      6.4274     6.0000    -0.4274     3.8756     2.9299     0.9457
  1 H      0.8621     1.0000     0.1379     0.9812     0.9792     0.0020
  2 H      0.8517     1.0000     0.1483     0.9847     0.9829     0.0019
  3 H      0.8588     1.0000     0.1412     0.9837     0.9815     0.0021

  Mayer bond orders larger than 0.100000
B(  0-C ,  1-H ) :   0.9775 B(  0-C ,  2-H ) :   0.9762 B(  0-C ,  3-H ) :   0.9762 


-------
TIMINGS
-------

Total SCF time: 0 days 0 hours 0 min 6 sec 

Total time                  ....       6.052 sec
Sum of individual times     ....       5.321 sec  ( 87.9%)

Fock matrix formation       ....       4.493 sec  ( 74.2%)
  Split-RI-J                ....       0.429 sec  (  9.5% of F)
  Chain of spheres X        ....       0.964 sec  ( 21.4% of F)
  XC integration            ....       1.826 sec  ( 40.6% of F)
    Basis function eval.    ....       0.113 sec  (  6.2% of XC)
    Density eval.           ....       0.115 sec  (  6.3% of XC)
    XC-Functional eval.     ....       0.101 sec  (  5.5% of XC)
    XC-Potential eval.      ....       0.161 sec  (  8.8% of XC)
Diagonalization             ....       0.045 sec  (  0.7%)
Density matrix formation    ....       0.002 sec  (  0.0%)
Population analysis         ....       0.066 sec  (  1.1%)
Initial guess               ....       0.064 sec  (  1.0%)
Orbital Transformation      ....       0.000 sec  (  0.0%)
Orbital Orthonormalization  ....       0.000 sec  (  0.0%)
DIIS solution               ....       0.061 sec  (  1.0%)
Grid generation             ....       0.590 sec  (  9.8%)

Maximum memory used throughout the entire SCF-calculation: 59.0 MB

-------------------------   --------------------
FINAL SINGLE POINT ENERGY       -39.826929452478
-------------------------   --------------------

   --->>> g-tensor requested, so NeedSOC=true

                            ***************************************
                            *     ORCA property calculations      *
                            ***************************************

                                    ---------------------
                                    Active property flags
                                    ---------------------
   (+) Dipole Moment
   (+) g-tensor
   (+) Nuclear properties (Hyperfine,Quadrupole)
   (+) Spin-Orbit Integrals are needed


------------------------------------------------------------------------------
                       ORCA ELECTRIC PROPERTIES CALCULATION
------------------------------------------------------------------------------

Dipole Moment Calculation                       ... on
Quadrupole Moment Calculation                   ... off
Polarizability Calculation                      ... off
GBWName                                         ... /home/rwth0701/scratch/cs681498/orcajob__30556450-SvKk/13736.gbw
Electron density                                ... /home/rwth0701/scratch/cs681498/orcajob__30556450-SvKk/13736.scfp
The origin for moment calculation is the CENTER OF MASS  = (-114.739955, -157.181249 -48.858372)

-------------
DIPOLE MOMENT
-------------
                                X             Y             Z
Electronic contribution:      0.07032      -0.06088       0.00582
Nuclear contribution   :     -0.07993       0.05899      -0.01426
                        -----------------------------------------
Total Dipole Moment    :     -0.00961      -0.00189      -0.00844
                        -----------------------------------------
Magnitude (a.u.)       :      0.01293
Magnitude (Debye)      :      0.03286



--------------------
Rotational spectrum 
--------------------
 
Rotational constants in cm-1:    10.023295     8.920266     4.720476 
Rotational constants in MHz : 300490.818263 267422.848368 141516.303850 

 Dipole components along the rotational axes: 
x,y,z [a.u.] :    -0.001867    -0.009562    -0.008500 
x,y,z [Debye]:    -0.004745    -0.024304    -0.021604 

 


           ************************************************************
           *        Program running with 4 parallel MPI-processes     *
           *              working on a common directory               *
           ************************************************************
------------------------------------------------------------------------------
                         ORCA SPIN-ORBIT COUPLING CALCULATION
------------------------------------------------------------------------------

GBW file                                    ... /home/rwth0701/scratch/cs681498/orcajob__30556450-SvKk/13736.gbw
Input density                               ... /home/rwth0701/scratch/cs681498/orcajob__30556450-SvKk/13736.scfp
Output integrals                            ... /home/rwth0701/scratch/cs681498/orcajob__30556450-SvKk/13736
Operator type                               ... Mean-field/Effective potential
   One-Electron Terms                       ... 1
   Coulomb Contribution                     ... 3
   Exchange Contribution                    ... 3
   Correlation Contribution                 ... 0
   Maximum number of centers                ... 4
SHARK 2-electron RIJ-SOMF                   ... done (  0.1 sec)
SHARK 1-electron  MaxCenter=4               ... done (  0.0 sec)
SHARK 2-electron DoJ,X=0,1 MaxCenter=1      ... done (  0.1 sec)

Maximum memory used throughout the entire SOC-calculation: 11.3 MB
Total time for SOC:  2.487


           ************************************************************
           *        Program running with 4 parallel MPI-processes     *
           *              working on a common directory               *
           ************************************************************
------------------------------------------------------------------------------
                                ORCA EPR/NMR CALCULATION
------------------------------------------------------------------------------

GBWName                      ... /home/rwth0701/scratch/cs681498/orcajob__30556450-SvKk/13736.gbw
Electron density             ... /home/rwth0701/scratch/cs681498/orcajob__30556450-SvKk/13736.scfp
Spin density                 ... /home/rwth0701/scratch/cs681498/orcajob__30556450-SvKk/13736.scfr
Spin-orbit integrals         ... /home/rwth0701/scratch/cs681498/orcajob__30556450-SvKk/13736
Treatment of gauge           ... GIAO (approximations 1/2el = 0,0)
Details of the CP(SCF) procedure:
       Solver   = POPLE   
       MaxIter  =    64   
       Tolerance=    1.000e-03
       COSX Grid=     1   
       Op-0     =   0-  4 =>   5- 72
       Op-1     =   0-  3 =>   4- 72
Multiplicity                 ... 2
g-tensor                     ... 1
NMR chemical shifts          ... 0
NMR spin-spin couplings      ... 0
NMR spectrum                 ... 0
Number of nuclei for epr/nmr ... 4
   Nucleus:   1H 
       Hyperfine : Isotope=    1 I=   0.500 P= 533.551
       Quadrupole: Isotope=    2 I=   1.000 Q=   0.003
       Spin-Orbit: Zeff=   1.000
       Nuclear Spin-Spin: Gn=   0.000
       EPRNMR Input: 
       rho(0)=N f(grad)=N a(iso)=Y a(dip)=Y a(orb)=Y sigma(nmr)=N spin-spin(nmr)=all-N,DSO-N,PSO-N,FC-N,SD-N
   Nucleus:   2H 
       Hyperfine : Isotope=    1 I=   0.500 P= 533.551
       Quadrupole: Isotope=    2 I=   1.000 Q=   0.003
       Spin-Orbit: Zeff=   1.000
       Nuclear Spin-Spin: Gn=   0.000
       EPRNMR Input: 
       rho(0)=N f(grad)=N a(iso)=Y a(dip)=Y a(orb)=Y sigma(nmr)=N spin-spin(nmr)=all-N,DSO-N,PSO-N,FC-N,SD-N
   Nucleus:   3H 
       Hyperfine : Isotope=    1 I=   0.500 P= 533.551
       Quadrupole: Isotope=    2 I=   1.000 Q=   0.003
       Spin-Orbit: Zeff=   1.000
       Nuclear Spin-Spin: Gn=   0.000
       EPRNMR Input: 
       rho(0)=N f(grad)=N a(iso)=Y a(dip)=Y a(orb)=Y sigma(nmr)=N spin-spin(nmr)=all-N,DSO-N,PSO-N,FC-N,SD-N
   Nucleus:   0C 
       Hyperfine : Isotope=   13 I=   0.500 P= 134.190
       Quadrupole: Isotope=   13 I=   0.500 Q=   0.000
       Spin-Orbit: Zeff=   3.600
       Nuclear Spin-Spin: Gn=   0.000
       EPRNMR Input: 
       rho(0)=N f(grad)=N a(iso)=Y a(dip)=Y a(orb)=Y sigma(nmr)=N spin-spin(nmr)=all-N,DSO-N,PSO-N,FC-N,SD-N
Forming RHS of the CP-SCF equations         ... 
Calculating right hand sides for GIAO treatment        ... 
  Entering RightHandSide GIAO. ScalHFX=    0.2000 NeedHFX=1
     -> 1-electron GIAO integrals will be done analytically
     -> RIJCOSX used in SCF. Same chosen for GIAO calculation.
     Making grid for GIAO integrations   ...

GRID GIAO
---------

General Integration Accuracy     IntAcc      ... 4.388
Radial Grid Type                 RadialGrid  ... OptM3 with GC (2021)
Angular Grid (max. ang.)         AngularGrid ... 4 (Lebedev-302)
Angular grid pruning method      GridPruning ... 4 (adaptive)
Weight generation scheme         WeightScheme... Becke
Basis function cutoff            BFCut       ... 1.0000e-10
Integration weight cutoff        WCut        ... 1.0000e-14
Angular grids for H and He will be reduced by one unit
Partially contracted basis set               ... off
Rotationally invariant grid construction     ... off

Total number of grid points                  ...    17044
Total number of batches                      ...      269
Average number of points per batch           ...       63
Average number of grid points per atom       ...     4261

  One-electron GIAO integrals (SHARK)     ... done
  Calculating G(B)[P]                     ... (RI-J: SHARK-ok) (COSX-ok) (add-J+K:ok) => dG/dB done
  DFT XC-terms                            ... done
  Extracting occupied and virtual blocks  ... 
  Operator  0  NO=   5 NV=  68 
  Operator  1  NO=   4 NV=  69 
  Transforming and RHS contribution       ... done
  Adding eps_i * S(B)_ai terms            ... done
  Projecting overlap derivatives          ... done
  Building G[dS/dB_ij] (COSX)             ... done
  Transforming to MO basis                ... done
  Summing G[dS/dB_ij] into RHS contribs.  ... done

  GIAO profiling information: 
    Total GIAO time               ...       0.9 sec
       GIAO 1-electron integrals  ...       0.0 sec (  1.8%)
       GIAO G(dS/dB) terms        ...       0.1 sec ( 11.4%)
       GIAO RI-J                  ...       0.1 sec ( 11.7%)
       GIAO COSX                  ...       0.2 sec ( 18.5%)
       GIAO XC-terms              ...       0.3 sec ( 36.4%)

  GIAO right hand side done


------------------------------------------------------------------------------
                           ORCA CP-SCF CALCULATION
------------------------------------------------------------------------------

Input orbitals are from        ... /home/rwth0701/scratch/cs681498/orcajob__30556450-SvKk/13736.gbw
Input Perturbation             ... /home/rwth0701/scratch/cs681498/orcajob__30556450-SvKk/13736.pin.tmp
Wavefunction output            ... /home/rwth0701/scratch/cs681498/orcajob__30556450-SvKk/13736.pout.tmp
Perturbation mode              ... Imaginary perturbation
Solver                         ... POPLE
Max. number of iterations      ... 64
Convergence tolerance          ... 1.000e-03
Integral handling              ... Direct
DFT GridXC                     ... 1
COSX GridX                     ... 1
COSX IntAccX                   ... 3.067
COSX Algorithm                 ... Auto
Number of perturbations        ... 3
Number of operators            ... 2
Orbital ranges used for CP-SCF:
 Operator 0:  Orbitals   0...  4  to   5... 72
 Operator 1:  Orbitals   0...  3  to   4... 72
Variables per perturbation     ... 616
DFT calculation                         ... on
XC functional terms                     ... off
Hybrid DFT                              ... on
   Exchange mixing (SCF)                ...  0.200
   Exchange mixing (CP-SCF)             ...  0.200
   GGA exch. scaling(SCF)               ...  0.720
   GGA exch. scaling (CP-SCF)           ...  0.720
   GGA corr. scaling (SCF)              ...  0.810
   GGA corr. scaling (CP-SCF)           ...  0.810

CP-SCF GRID
-----------

General Integration Accuracy     IntAcc      ... 3.467
Radial Grid Type                 RadialGrid  ... OptM3 with GC (2021)
Angular Grid (max. ang.)         AngularGrid ... 1 (Lebedev-50)
Angular grid pruning method      GridPruning ... 4 (adaptive)
Weight generation scheme         WeightScheme... Becke
Basis function cutoff            BFCut       ... 1.0000e-10
Integration weight cutoff        WCut        ... 1.0000e-14
Angular grids for H and He will be reduced by one unit
Partially contracted basis set               ... off
Rotationally invariant grid construction     ... off

Total number of grid points                  ...     2340
Total number of batches                      ...       38
Average number of points per batch           ...       61
Average number of grid points per atom       ...      585

CP-SCF GRIDX
------------

General Integration Accuracy     IntAcc      ... 3.067
Radial Grid Type                 RadialGrid  ... OptM3 with GC (2021)
Angular Grid (max. ang.)         AngularGrid ... 1 (Lebedev-50)
Angular grid pruning method      GridPruning ... 4 (adaptive)
Weight generation scheme         WeightScheme... Becke
Basis function cutoff            BFCut       ... 1.0000e-10
Integration weight cutoff        WCut        ... 1.0000e-14
Angular grids for H and He will be reduced by one unit
Partially contracted basis set               ... on
Rotationally invariant grid construction     ... off

Total number of grid points                  ...     1073
Total number of batches                      ...       20
Average number of points per batch           ...       53
Average number of grid points per atom       ...      268

Memory available               ... 1014.6 MB
Memory needed per perturbation ...   0.4 MB
Perturbations treated per batch... 3
Number of batches              ... 1
     CP-SCF ITERATION   0:   8.3492e+00 (   0.1 sec   0/  3 done)
     CP-SCF ITERATION   1:   6.3816e-02 (   0.1 sec   0/  3 done)
     CP-SCF ITERATION   2:   3.7326e-03 (   0.1 sec   0/  3 done)
     CP-SCF ITERATION   3:   2.5501e-04 (   0.1 sec   3/  3 done)
                    *** THE CP-SCF HAS CONVERGED ***

Forming final perturbed densities           ... done
Transforming perturbed density to AO basis  ... done

Magnetic field perturbation calculated in  1.430 sec
GIAO: Diamagnetic terms      (analytic)     (SHARK) ... done
GIAO: 1el-Paramagnetic terms (analytic)     (SHARK) ... done

-------------------
ELECTRONIC G-MATRIX
-------------------

 The g-matrix: 
              2.0028897    0.0000011   -0.0000212
              0.0000056    2.0029098    0.0000668
             -0.0000318    0.0000533    2.0022435

 gel          2.0023193    2.0023193    2.0023193
 gRMC        -0.0001270   -0.0001270   -0.0001270
 gDSO(tot)    0.0000343    0.0000708    0.0000710
 gPSO(tot)    0.0000105    0.0006276    0.0006520
             ----------   ----------   ----------
 g(tot)       2.0022371    2.0028907    2.0029152 iso=  2.0026810
 Delta-g     -0.0000822    0.0005715    0.0005959 iso=  0.0003617
 Orientation: 
  X           0.0408501   -0.9983924   -0.0392932
  Y          -0.0890662    0.0355308   -0.9953918
  Z           0.9951877    0.0441615   -0.0874716

Notes:  (1) The g-matrix conforms to the "BgS" spin Hamiltonian convention. 
        (2) The principal values are square roots of the eigenvalues of g*gT.
        (3) Orientations are eigenvectors of g*gT written as column vectors.
        (4) Individual contributions are projections of the full matrices onto the eigenvectors of g*gT.
        (5) Tensor is right-handed.


-----------------------------------------
ELECTRIC AND MAGNETIC HYPERFINE STRUCTURE
-----------------------------------------

 -----------------------------------------------------------
 Nucleus   1H : A:ISTP=    1 I=  0.5 P=533.5514 MHz/au**3
                Q:ISTP=    2 I=  1.0 Q=  0.0029 barn     
 -----------------------------------------------------------
 Solving for nuclear perturbation:
Forming RHS of the CP-SCF equations         ... 
Calc. nucleus orbit integrals (SHARK)       ... done

------------------------------------------------------------------------------
                           ORCA CP-SCF CALCULATION
------------------------------------------------------------------------------

Input orbitals are from        ... /home/rwth0701/scratch/cs681498/orcajob__30556450-SvKk/13736.gbw
Input Perturbation             ... /home/rwth0701/scratch/cs681498/orcajob__30556450-SvKk/13736.pin.tmp
Wavefunction output            ... /home/rwth0701/scratch/cs681498/orcajob__30556450-SvKk/13736.pout.tmp
Perturbation mode              ... Imaginary perturbation
Solver                         ... POPLE
Max. number of iterations      ... 64
Convergence tolerance          ... 1.000e-03
Integral handling              ... Direct
DFT GridXC                     ... 1
COSX GridX                     ... 1
COSX IntAccX                   ... 3.067
COSX Algorithm                 ... Auto
Number of perturbations        ... 3
Number of operators            ... 2
Orbital ranges used for CP-SCF:
 Operator 0:  Orbitals   0...  4  to   5... 72
 Operator 1:  Orbitals   0...  3  to   4... 72
Variables per perturbation     ... 616
DFT calculation                         ... on
XC functional terms                     ... off
Hybrid DFT                              ... on
   Exchange mixing (SCF)                ...  0.200
   Exchange mixing (CP-SCF)             ...  0.200
   GGA exch. scaling(SCF)               ...  0.720
   GGA exch. scaling (CP-SCF)           ...  0.720
   GGA corr. scaling (SCF)              ...  0.810
   GGA corr. scaling (CP-SCF)           ...  0.810

CP-SCF GRID
-----------

General Integration Accuracy     IntAcc      ... 3.467
Radial Grid Type                 RadialGrid  ... OptM3 with GC (2021)
Angular Grid (max. ang.)         AngularGrid ... 1 (Lebedev-50)
Angular grid pruning method      GridPruning ... 4 (adaptive)
Weight generation scheme         WeightScheme... Becke
Basis function cutoff            BFCut       ... 1.0000e-10
Integration weight cutoff        WCut        ... 1.0000e-14
Angular grids for H and He will be reduced by one unit
Partially contracted basis set               ... off
Rotationally invariant grid construction     ... off

Total number of grid points                  ...     2340
Total number of batches                      ...       38
Average number of points per batch           ...       61
Average number of grid points per atom       ...      585

CP-SCF GRIDX
------------

General Integration Accuracy     IntAcc      ... 3.067
Radial Grid Type                 RadialGrid  ... OptM3 with GC (2021)
Angular Grid (max. ang.)         AngularGrid ... 1 (Lebedev-50)
Angular grid pruning method      GridPruning ... 4 (adaptive)
Weight generation scheme         WeightScheme... Becke
Basis function cutoff            BFCut       ... 1.0000e-10
Integration weight cutoff        WCut        ... 1.0000e-14
Angular grids for H and He will be reduced by one unit
Partially contracted basis set               ... on
Rotationally invariant grid construction     ... off

Total number of grid points                  ...     1073
Total number of batches                      ...       20
Average number of points per batch           ...       53
Average number of grid points per atom       ...      268

Memory available               ... 968.0 MB
Memory needed per perturbation ...   0.4 MB
Perturbations treated per batch... 3
Number of batches              ... 1
     CP-SCF ITERATION   0:   6.3821e-02 (   0.1 sec   0/  3 done)
     CP-SCF ITERATION   1:   2.1803e-03 (   0.1 sec   1/  3 done)
     CP-SCF ITERATION   2:   1.4938e-04 (   0.1 sec   3/  3 done)
                    *** THE CP-SCF HAS CONVERGED ***

Forming final perturbed densities           ... done
Transforming perturbed density to AO basis  ... done

 Raw HFC matrix (all values in MHz): 
 -----------------------------------
               -26.5215               9.2815               0.2098
                 9.2821            -101.7345              -4.1520
                 0.2099              -4.1520             -63.3084

 A(FC)         -63.8692             -63.8692             -63.8692
 A(SD)          38.4658               0.9893             -39.4552
 A(ORB+DIA)      0.0126              -0.0007               0.0312    A(PC) =   0.0144
 A(ORB)          0.0078               0.0005               0.0298    A(PC) =   0.0127
 A(DIA)          0.0049              -0.0011               0.0014    A(PC) =   0.0017
             ----------           ----------           ----------
 A(Tot)        -25.3907             -62.8805            -103.2932    A(iso)=  -63.8548
 Orientation: 
  X           0.9926100           -0.0201642           -0.1196611
  Y           0.1210992            0.1014720            0.9874403
  Z          -0.0077687           -0.9946340            0.1031640

Notes:  (1) The A matrix conforms to the "SAI" spin Hamiltonian convention.
        (2) Tensor is right-handed.

 -----------------------------------------------------------
 Nucleus   2H : A:ISTP=    1 I=  0.5 P=533.5514 MHz/au**3
                Q:ISTP=    2 I=  1.0 Q=  0.0029 barn     
 -----------------------------------------------------------
 Solving for nuclear perturbation:
Forming RHS of the CP-SCF equations         ... 
Calc. nucleus orbit integrals (SHARK)       ... done

------------------------------------------------------------------------------
                           ORCA CP-SCF CALCULATION
------------------------------------------------------------------------------

Input orbitals are from        ... /home/rwth0701/scratch/cs681498/orcajob__30556450-SvKk/13736.gbw
Input Perturbation             ... /home/rwth0701/scratch/cs681498/orcajob__30556450-SvKk/13736.pin.tmp
Wavefunction output            ... /home/rwth0701/scratch/cs681498/orcajob__30556450-SvKk/13736.pout.tmp
Perturbation mode              ... Imaginary perturbation
Solver                         ... POPLE
Max. number of iterations      ... 64
Convergence tolerance          ... 1.000e-03
Integral handling              ... Direct
DFT GridXC                     ... 1
COSX GridX                     ... 1
COSX IntAccX                   ... 3.067
COSX Algorithm                 ... Auto
Number of perturbations        ... 3
Number of operators            ... 2
Orbital ranges used for CP-SCF:
 Operator 0:  Orbitals   0...  4  to   5... 72
 Operator 1:  Orbitals   0...  3  to   4... 72
Variables per perturbation     ... 616
DFT calculation                         ... on
XC functional terms                     ... off
Hybrid DFT                              ... on
   Exchange mixing (SCF)                ...  0.200
   Exchange mixing (CP-SCF)             ...  0.200
   GGA exch. scaling(SCF)               ...  0.720
   GGA exch. scaling (CP-SCF)           ...  0.720
   GGA corr. scaling (SCF)              ...  0.810
   GGA corr. scaling (CP-SCF)           ...  0.810

CP-SCF GRID
-----------

General Integration Accuracy     IntAcc      ... 3.467
Radial Grid Type                 RadialGrid  ... OptM3 with GC (2021)
Angular Grid (max. ang.)         AngularGrid ... 1 (Lebedev-50)
Angular grid pruning method      GridPruning ... 4 (adaptive)
Weight generation scheme         WeightScheme... Becke
Basis function cutoff            BFCut       ... 1.0000e-10
Integration weight cutoff        WCut        ... 1.0000e-14
Angular grids for H and He will be reduced by one unit
Partially contracted basis set               ... off
Rotationally invariant grid construction     ... off

Total number of grid points                  ...     2340
Total number of batches                      ...       38
Average number of points per batch           ...       61
Average number of grid points per atom       ...      585

CP-SCF GRIDX
------------

General Integration Accuracy     IntAcc      ... 3.067
Radial Grid Type                 RadialGrid  ... OptM3 with GC (2021)
Angular Grid (max. ang.)         AngularGrid ... 1 (Lebedev-50)
Angular grid pruning method      GridPruning ... 4 (adaptive)
Weight generation scheme         WeightScheme... Becke
Basis function cutoff            BFCut       ... 1.0000e-10
Integration weight cutoff        WCut        ... 1.0000e-14
Angular grids for H and He will be reduced by one unit
Partially contracted basis set               ... on
Rotationally invariant grid construction     ... off

Total number of grid points                  ...     1073
Total number of batches                      ...       20
Average number of points per batch           ...       53
Average number of grid points per atom       ...      268

Memory available               ... 967.8 MB
Memory needed per perturbation ...   0.4 MB
Perturbations treated per batch... 3
Number of batches              ... 1
     CP-SCF ITERATION   0:   6.7654e-02 (   0.1 sec   0/  3 done)
     CP-SCF ITERATION   1:   2.7460e-03 (   0.1 sec   0/  3 done)
     CP-SCF ITERATION   2:   2.4058e-04 (   0.1 sec   3/  3 done)
                    *** THE CP-SCF HAS CONVERGED ***

Forming final perturbed densities           ... done
Transforming perturbed density to AO basis  ... done

 Raw HFC matrix (all values in MHz): 
 -----------------------------------
               -78.9966             -38.3060              -3.5790
               -38.3066             -54.5773               2.3801
                -3.5791               2.3801             -62.6581

 A(FC)         -65.4249             -65.4249             -65.4249
 A(SD)          39.2771               2.3716             -41.6487
 A(ORB+DIA)      0.0117              -0.0006               0.0317    A(PC) =   0.0143
 A(ORB)          0.0065               0.0006               0.0302    A(PC) =   0.0124
 A(DIA)          0.0052              -0.0012               0.0015    A(PC) =   0.0019
             ----------           ----------           ----------
 A(Tot)        -26.1361             -63.0540            -107.0419    A(iso)=  -65.4107
 Orientation: 
  X          -0.5881049            0.0377096            0.8079051
  Y           0.8012898           -0.1085090            0.5883540
  Z           0.1098515            0.9933800            0.0335983

Notes:  (1) The A matrix conforms to the "SAI" spin Hamiltonian convention.
        (2) Tensor is right-handed.

 -----------------------------------------------------------
 Nucleus   3H : A:ISTP=    1 I=  0.5 P=533.5514 MHz/au**3
                Q:ISTP=    2 I=  1.0 Q=  0.0029 barn     
 -----------------------------------------------------------
 Solving for nuclear perturbation:
Forming RHS of the CP-SCF equations         ... 
Calc. nucleus orbit integrals (SHARK)       ... done

------------------------------------------------------------------------------
                           ORCA CP-SCF CALCULATION
------------------------------------------------------------------------------

Input orbitals are from        ... /home/rwth0701/scratch/cs681498/orcajob__30556450-SvKk/13736.gbw
Input Perturbation             ... /home/rwth0701/scratch/cs681498/orcajob__30556450-SvKk/13736.pin.tmp
Wavefunction output            ... /home/rwth0701/scratch/cs681498/orcajob__30556450-SvKk/13736.pout.tmp
Perturbation mode              ... Imaginary perturbation
Solver                         ... POPLE
Max. number of iterations      ... 64
Convergence tolerance          ... 1.000e-03
Integral handling              ... Direct
DFT GridXC                     ... 1
COSX GridX                     ... 1
COSX IntAccX                   ... 3.067
COSX Algorithm                 ... Auto
Number of perturbations        ... 3
Number of operators            ... 2
Orbital ranges used for CP-SCF:
 Operator 0:  Orbitals   0...  4  to   5... 72
 Operator 1:  Orbitals   0...  3  to   4... 72
Variables per perturbation     ... 616
DFT calculation                         ... on
XC functional terms                     ... off
Hybrid DFT                              ... on
   Exchange mixing (SCF)                ...  0.200
   Exchange mixing (CP-SCF)             ...  0.200
   GGA exch. scaling(SCF)               ...  0.720
   GGA exch. scaling (CP-SCF)           ...  0.720
   GGA corr. scaling (SCF)              ...  0.810
   GGA corr. scaling (CP-SCF)           ...  0.810

CP-SCF GRID
-----------

General Integration Accuracy     IntAcc      ... 3.467
Radial Grid Type                 RadialGrid  ... OptM3 with GC (2021)
Angular Grid (max. ang.)         AngularGrid ... 1 (Lebedev-50)
Angular grid pruning method      GridPruning ... 4 (adaptive)
Weight generation scheme         WeightScheme... Becke
Basis function cutoff            BFCut       ... 1.0000e-10
Integration weight cutoff        WCut        ... 1.0000e-14
Angular grids for H and He will be reduced by one unit
Partially contracted basis set               ... off
Rotationally invariant grid construction     ... off

Total number of grid points                  ...     2340
Total number of batches                      ...       38
Average number of points per batch           ...       61
Average number of grid points per atom       ...      585

CP-SCF GRIDX
------------

General Integration Accuracy     IntAcc      ... 3.067
Radial Grid Type                 RadialGrid  ... OptM3 with GC (2021)
Angular Grid (max. ang.)         AngularGrid ... 1 (Lebedev-50)
Angular grid pruning method      GridPruning ... 4 (adaptive)
Weight generation scheme         WeightScheme... Becke
Basis function cutoff            BFCut       ... 1.0000e-10
Integration weight cutoff        WCut        ... 1.0000e-14
Angular grids for H and He will be reduced by one unit
Partially contracted basis set               ... on
Rotationally invariant grid construction     ... off

Total number of grid points                  ...     1073
Total number of batches                      ...       20
Average number of points per batch           ...       53
Average number of grid points per atom       ...      268

Memory available               ... 967.7 MB
Memory needed per perturbation ...   0.4 MB
Perturbations treated per batch... 3
Number of batches              ... 1
     CP-SCF ITERATION   0:   5.9932e-02 (   0.1 sec   0/  3 done)
     CP-SCF ITERATION   1:   2.2599e-03 (   0.1 sec   1/  3 done)
     CP-SCF ITERATION   2:   1.8688e-04 (   0.1 sec   3/  3 done)
                    *** THE CP-SCF HAS CONVERGED ***

Forming final perturbed densities           ... done
Transforming perturbed density to AO basis  ... done

 Raw HFC matrix (all values in MHz): 
 -----------------------------------
               -96.8335              21.8954               3.0074
                21.8948             -36.8769               2.0020
                 3.0074               2.0020             -67.4038

 A(FC)         -67.0520             -67.0520             -67.0520
 A(SD)          37.5189              -0.4269             -37.0920
 A(ORB+DIA)      0.0133              -0.0007               0.0293    A(PC) =   0.0140
 A(ORB)          0.0088               0.0004               0.0280    A(PC) =   0.0124
 A(DIA)          0.0045              -0.0011               0.0013    A(PC) =   0.0016
             ----------           ----------           ----------
 A(Tot)        -29.5198             -67.4797            -104.1148    A(iso)=  -67.0381
 Orientation: 
  X          -0.3114748            0.0348229           -0.9496162
  Y          -0.9473069           -0.0900282            0.3074159
  Z          -0.0747871            0.9953302            0.0610295

Notes:  (1) The A matrix conforms to the "SAI" spin Hamiltonian convention.
        (2) Tensor is right-handed.

 -----------------------------------------------------------
 Nucleus   0C : A:ISTP=   13 I=  0.5 P=134.1903 MHz/au**3
                Q:ISTP=   13 I=  0.5 Q=  0.0000 barn     
 -----------------------------------------------------------
 Solving for nuclear perturbation:
Forming RHS of the CP-SCF equations         ... 
Calc. nucleus orbit integrals (SHARK)       ... done

------------------------------------------------------------------------------
                           ORCA CP-SCF CALCULATION
------------------------------------------------------------------------------

Input orbitals are from        ... /home/rwth0701/scratch/cs681498/orcajob__30556450-SvKk/13736.gbw
Input Perturbation             ... /home/rwth0701/scratch/cs681498/orcajob__30556450-SvKk/13736.pin.tmp
Wavefunction output            ... /home/rwth0701/scratch/cs681498/orcajob__30556450-SvKk/13736.pout.tmp
Perturbation mode              ... Imaginary perturbation
Solver                         ... POPLE
Max. number of iterations      ... 64
Convergence tolerance          ... 1.000e-03
Integral handling              ... Direct
DFT GridXC                     ... 1
COSX GridX                     ... 1
COSX IntAccX                   ... 3.067
COSX Algorithm                 ... Auto
Number of perturbations        ... 3
Number of operators            ... 2
Orbital ranges used for CP-SCF:
 Operator 0:  Orbitals   0...  4  to   5... 72
 Operator 1:  Orbitals   0...  3  to   4... 72
Variables per perturbation     ... 616
DFT calculation                         ... on
XC functional terms                     ... off
Hybrid DFT                              ... on
   Exchange mixing (SCF)                ...  0.200
   Exchange mixing (CP-SCF)             ...  0.200
   GGA exch. scaling(SCF)               ...  0.720
   GGA exch. scaling (CP-SCF)           ...  0.720
   GGA corr. scaling (SCF)              ...  0.810
   GGA corr. scaling (CP-SCF)           ...  0.810

CP-SCF GRID
-----------

General Integration Accuracy     IntAcc      ... 3.467
Radial Grid Type                 RadialGrid  ... OptM3 with GC (2021)
Angular Grid (max. ang.)         AngularGrid ... 1 (Lebedev-50)
Angular grid pruning method      GridPruning ... 4 (adaptive)
Weight generation scheme         WeightScheme... Becke
Basis function cutoff            BFCut       ... 1.0000e-10
Integration weight cutoff        WCut        ... 1.0000e-14
Angular grids for H and He will be reduced by one unit
Partially contracted basis set               ... off
Rotationally invariant grid construction     ... off

Total number of grid points                  ...     2340
Total number of batches                      ...       38
Average number of points per batch           ...       61
Average number of grid points per atom       ...      585

CP-SCF GRIDX
------------

General Integration Accuracy     IntAcc      ... 3.067
Radial Grid Type                 RadialGrid  ... OptM3 with GC (2021)
Angular Grid (max. ang.)         AngularGrid ... 1 (Lebedev-50)
Angular grid pruning method      GridPruning ... 4 (adaptive)
Weight generation scheme         WeightScheme... Becke
Basis function cutoff            BFCut       ... 1.0000e-10
Integration weight cutoff        WCut        ... 1.0000e-14
Angular grids for H and He will be reduced by one unit
Partially contracted basis set               ... on
Rotationally invariant grid construction     ... off

Total number of grid points                  ...     1073
Total number of batches                      ...       20
Average number of points per batch           ...       53
Average number of grid points per atom       ...      268

Memory available               ... 967.6 MB
Memory needed per perturbation ...   0.4 MB
Perturbations treated per batch... 3
Number of batches              ... 1
     CP-SCF ITERATION   0:   1.1197e+00 (   0.1 sec   0/  3 done)
     CP-SCF ITERATION   1:   4.1197e-02 (   0.1 sec   0/  3 done)
     CP-SCF ITERATION   2:   2.9649e-03 (   0.1 sec   0/  3 done)
     CP-SCF ITERATION   3:   1.3237e-04 (   0.1 sec   3/  3 done)
                    *** THE CP-SCF HAS CONVERGED ***

Forming final perturbed densities           ... done
Transforming perturbed density to AO basis  ... done

 Raw HFC matrix (all values in MHz): 
 -----------------------------------
                 2.8317              -0.4048               7.5452
                -0.4048               4.8324             -24.0145
                 7.5452             -24.0145             241.3230

 A(FC)          83.1118              83.1118              83.1118
 A(SD)         -80.7975             -80.0764             160.8738
 A(ORB+DIA)     -0.1700              -0.1659              -0.0125    A(PC) =  -0.1161
 A(ORB)         -0.1704              -0.1662              -0.0124    A(PC) =  -0.1163
 A(DIA)          0.0004               0.0004              -0.0001    A(PC) =   0.0002
             ----------           ----------           ----------
 A(Tot)          2.1443               2.8696             243.9732    A(iso)=   82.9957
 Orientation: 
  X          -0.6145433            0.7882625           -0.0312852
  Y           0.7827748            0.6142308            0.0999208
  Z           0.0979801            0.0369164           -0.9945034

Notes:  (1) The A matrix conforms to the "SAI" spin Hamiltonian convention.
        (2) Tensor is right-handed.


--------------------------------------------------------------------------------
----------------------------------------------------------------------------
                           ORCA EULER ANGLE PROGRAM
----------------------------------------------------------------------------

Only g-tensor available        -->  using g-tensor as reference tensor

Reference tensor               ...  g

g-tensor ordering              ...  |g_min> --> |gx>
                                    |g_mid> --> |gy>
                                    |g_max> --> |gz>

A- and EFG-tensor ordering     ...  the axes |Ax>, |Qx>, |Ay>, etc. are assigned
                                    such that the Euler rotation is minimal. You
                                    can find the respective eigenvalues as Ax,
                                    EFGx, Ay, etc. in the tables below.
                                    The relation of |Ax>, |Ay>,  etc. to Amin, Amid, etc.
                                    (as printed in the ORCA EPR/NMR CALCULATION Output)
                                    is obtained in the detailed printout.

Euler rotation around          ...  z - y - z
   First rotation              -->  by alpha around z
   Second rotation             -->  by beta around y'
   Third rotation              -->  by gamma around z''
   Positive / Negative angle   -->  clockwise / counterclockwise rotation

Plot EFG-tensors                    (-)
Plot HFC-tensors                    (-)
Detailed Printout                   (-)

-------------------------------------------------------------------------
          Euler rotation of hyperfine tensor to g-tensor
-------------------------------------------------------------------------

-------------------------------------------------------------------
 Atom  |   Alpha    Beta    Gamma   |   Ax       Ay       Az 
       |          [degrees]         |           [MHz]         
-------------------------------------------------------------------
  1H       85.2      9.2    -86.5     -62.88   -25.39  -103.29
  2H       88.2     38.4    -88.7     -63.05  -107.04   -26.14
  3H      -89.8     15.9     89.4     -67.48  -104.11   -29.52
  0C       89.0     40.2    -89.8     243.97     2.87     2.14
-------------------------------------------------------------------


Maximum memory used throughout the entire EPRNMR-calculation: 67.6 MB

Timings for individual modules:

Sum of individual times         ...       21.439 sec (=   0.357 min)
GTO integral calculation        ...        3.634 sec (=   0.061 min)  17.0 %
Spin-Orbit-Coupling Matrices    ...        2.479 sec (=   0.041 min)  11.6 %
SCF iterations                  ...        8.540 sec (=   0.142 min)  39.8 %
EPR/NMR calculation             ...        6.786 sec (=   0.113 min)  31.7 %
                             ****ORCA TERMINATED NORMALLY****
TOTAL RUN TIME: 0 days 0 hours 0 minutes 23 seconds 919 msec
