Job execution start: Mon Oct 24 16:40:31 CEST 2022
Shared library path: /home/cs681498/orca:/opt/MPI/openmpi-4.1.1/linux/gcc_4.8.5/lib:/opt/MPI/openmpi-4.1.1/linux/gcc_4.8.5/lib/lib32
Slurm Job ID is: 30556098
Slurm Job name is: 512
nrm121

                                 *****************
                                 * O   R   C   A *
                                 *****************

                                            #,                                       
                                            ###                                      
                                            ####                                     
                                            #####                                    
                                            ######                                   
                                           ########,                                 
                                     ,,################,,,,,                         
                               ,,#################################,,                 
                          ,,##########################################,,             
                       ,#########################################, ''#####,          
                    ,#############################################,,   '####,        
                  ,##################################################,,,,####,       
                ,###########''''           ''''###############################       
              ,#####''   ,,,,##########,,,,          '''####'''          '####       
            ,##' ,,,,###########################,,,                        '##       
           ' ,,###''''                  '''############,,,                           
         ,,##''                                '''############,,,,        ,,,,,,###''
      ,#''                                            '''#######################'''  
     '                                                          ''''####''''         
             ,#######,   #######,   ,#######,      ##                                
            ,#'     '#,  ##    ##  ,#'     '#,    #''#        ######   ,####,        
            ##       ##  ##   ,#'  ##            #'  '#       #        #'  '#        
            ##       ##  #######   ##           ,######,      #####,   #    #        
            '#,     ,#'  ##    ##  '#,     ,#' ,#      #,         ##   #,  ,#        
             '#######'   ##     ##  '#######'  #'      '#     #####' # '####'        



                  #######################################################
                  #                        -***-                        #
                  #          Department of theory and spectroscopy      #
                  #    Directorship and core code : Frank Neese         #
                  #        Max Planck Institute fuer Kohlenforschung    #
                  #                Kaiser Wilhelm Platz 1               #
                  #                 D-45470 Muelheim/Ruhr               #
                  #                      Germany                        #
                  #                                                     #
                  #                  All rights reserved                #
                  #                        -***-                        #
                  #######################################################


                         Program Version 5.0.3 -  RELEASE  -


 With contributions from (in alphabetic order):
   Daniel Aravena         : Magnetic Suceptibility
   Michael Atanasov       : Ab Initio Ligand Field Theory (pilot matlab implementation)
   Alexander A. Auer      : GIAO ZORA, VPT2 properties, NMR spectrum
   Ute Becker             : Parallelization
   Giovanni Bistoni       : ED, misc. LED, open-shell LED, HFLD
   Martin Brehm           : Molecular dynamics
   Dmytro Bykov           : SCF Hessian
   Vijay G. Chilkuri      : MRCI spin determinant printing, contributions to CSF-ICE
   Dipayan Datta          : RHF DLPNO-CCSD density
   Achintya Kumar Dutta   : EOM-CC, STEOM-CC
   Dmitry Ganyushin       : Spin-Orbit,Spin-Spin,Magnetic field MRCI
   Miquel Garcia          : C-PCM and meta-GGA Hessian, CC/C-PCM, Gaussian charge scheme
   Yang Guo               : DLPNO-NEVPT2, F12-NEVPT2, CIM, IAO-localization
   Andreas Hansen         : Spin unrestricted coupled pair/coupled cluster methods
   Benjamin Helmich-Paris : MC-RPA, TRAH-SCF, COSX integrals
   Lee Huntington         : MR-EOM, pCC
   Robert Izsak           : Overlap fitted RIJCOSX, COSX-SCS-MP3, EOM
   Marcus Kettner         : VPT2
   Christian Kollmar      : KDIIS, OOCD, Brueckner-CCSD(T), CCSD density, CASPT2, CASPT2-K
   Simone Kossmann        : Meta GGA functionals, TD-DFT gradient, OOMP2, MP2 Hessian
   Martin Krupicka        : Initial AUTO-CI
   Lucas Lang             : DCDCAS
   Marvin Lechner         : AUTO-CI (C++ implementation), FIC-MRCC
   Dagmar Lenk            : GEPOL surface, SMD
   Dimitrios Liakos       : Extrapolation schemes; Compound Job, initial MDCI parallelization
   Dimitrios Manganas     : Further ROCIS development; embedding schemes
   Dimitrios Pantazis     : SARC Basis sets
   Anastasios Papadopoulos: AUTO-CI, single reference methods and gradients
   Taras Petrenko         : DFT Hessian,TD-DFT gradient, ASA, ECA, R-Raman, ABS, FL, XAS/XES, NRVS
   Peter Pinski           : DLPNO-MP2, DLPNO-MP2 Gradient
   Christoph Reimann      : Effective Core Potentials
   Marius Retegan         : Local ZFS, SOC
   Christoph Riplinger    : Optimizer, TS searches, QM/MM, DLPNO-CCSD(T), (RO)-DLPNO pert. Triples
   Tobias Risthaus        : Range-separated hybrids, TD-DFT gradient, RPA, STAB
   Michael Roemelt        : Original ROCIS implementation
   Masaaki Saitow         : Open-shell DLPNO-CCSD energy and density
   Barbara Sandhoefer     : DKH picture change effects
   Avijit Sen             : IP-ROCIS
   Kantharuban Sivalingam : CASSCF convergence, NEVPT2, FIC-MRCI
   Bernardo de Souza      : ESD, SOC TD-DFT
   Georgi Stoychev        : AutoAux, RI-MP2 NMR, DLPNO-MP2 response
   Willem Van den Heuvel  : Paramagnetic NMR
   Boris Wezisla          : Elementary symmetry handling
   Frank Wennmohs         : Technical directorship


 We gratefully acknowledge several colleagues who have allowed us to
 interface, adapt or use parts of their codes:
   Stefan Grimme, W. Hujo, H. Kruse, P. Pracht,  : VdW corrections, initial TS optimization,
                  C. Bannwarth, S. Ehlert          DFT functionals, gCP, sTDA/sTD-DF
   Ed Valeev, F. Pavosevic, A. Kumar             : LibInt (2-el integral package), F12 methods
   Garnet Chan, S. Sharma, J. Yang, R. Olivares  : DMRG
   Ulf Ekstrom                                   : XCFun DFT Library
   Mihaly Kallay                                 : mrcc  (arbitrary order and MRCC methods)
   Jiri Pittner, Ondrej Demel                    : Mk-CCSD
   Frank Weinhold                                : gennbo (NPA and NBO analysis)
   Christopher J. Cramer and Donald G. Truhlar   : smd solvation model
   Lars Goerigk                                  : TD-DFT with DH, B97 family of functionals
   V. Asgeirsson, H. Jonsson                     : NEB implementation
   FAccTs GmbH                                   : IRC, NEB, NEB-TS, DLPNO-Multilevel, CI-OPT
                                                   MM, QMMM, 2- and 3-layer-ONIOM, Crystal-QMMM,
                                                   LR-CPCM, SF, NACMEs, symmetry and pop. for TD-DFT,
                                                   nearIR, NL-DFT gradient (VV10), updates on ESD,
                                                   ML-optimized integration grids
   S Lehtola, MJT Oliveira, MAL Marques          : LibXC Library
   Liviu Ungur et al                             : ANISO software


 Your calculation uses the libint2 library for the computation of 2-el integrals
 For citations please refer to: http://libint.valeyev.net

 Your ORCA version has been built with support for libXC version: 5.1.0
 For citations please refer to: https://tddft.org/programs/libxc/

 This ORCA versions uses:
   CBLAS   interface :  Fast vector & matrix operations
   LAPACKE interface :  Fast linear algebra routines
   SCALAPACK package :  Parallel linear algebra routines
   Shared memory     :  Shared parallel matrices
   BLAS/LAPACK       :  OpenBLAS 0.3.15  USE64BITINT DYNAMIC_ARCH NO_AFFINITY SkylakeX SINGLE_THREADED
        Core in use  :  SkylakeX
   Copyright (c) 2011-2014, The OpenBLAS Project


================================================================================

----- Orbital basis set information -----
Your calculation utilizes the basis: EPR-III
   V. Barone, in Recent Advances in Density Functional Methods, Part 1 (ed. D. P. Chong), World Scientific, Singapore, 1995, p. 287.
   N. Rega, M. Cossi and V. Barone, J. Chem. Phys. 105, 11060 (1996).

----- AuxJ basis set information -----
Your calculation utilizes the AutoAux generation procedure.
  G. L. Stoychev, A. A. Auer, F. Neese, J. Chem. Theory Comput. 13, 554 (2017)

----- AuxC basis set information -----
Your calculation utilizes the AutoAux generation procedure.
  G. L. Stoychev, A. A. Auer, F. Neese, J. Chem. Theory Comput. 13, 554 (2017)

----- AuxJK basis set information -----
Your calculation utilizes the AutoAux generation procedure.
  G. L. Stoychev, A. A. Auer, F. Neese, J. Chem. Theory Comput. 13, 554 (2017)

================================================================================
                                        WARNINGS
                       Please study these warnings very carefully!
================================================================================


WARNING: your system is open-shell and RHF/RKS was chosen
  ===> : WILL SWITCH to UHF/UKS


INFO   : the flag for use of the SHARK integral package has been found!

================================================================================
                                       INPUT FILE
================================================================================
NAME = /home/rwth0701/scratch/cs681498/orcajob__30556098-nSBk/512.inp
|  1> !B3LYP EPR-III Autoaux
|  2> !PAL4
|  3> 
|  4> * xyz 0 2
|  5>  C     10.8766081990     -2.5285644605     -7.5909585203
|  6>  H     11.3097235642     -1.8305795625     -8.3189722295
|  7>  H     10.6526840116     -2.2029037362     -6.6455825771
|  8>  H     10.9050808073     -3.5298037535     -7.8226189750
|  9> *
| 10> 
| 11> %EPRNMR
| 12>         GTENSOR   TRUE
| 13>         NUCLEI    = ALL H {AISO, ADIP, AORB}
| 14>         NUCLEI    = ALL C {AISO, ADIP, AORB}
| 15> END
| 16> 
| 17> 
| 18>                          ****END OF INPUT****
================================================================================

                       ****************************
                       * Single Point Calculation *
                       ****************************

---------------------------------
CARTESIAN COORDINATES (ANGSTROEM)
---------------------------------
  C     10.876608   -2.528564   -7.590959
  H     11.309724   -1.830580   -8.318972
  H     10.652684   -2.202904   -6.645583
  H     10.905081   -3.529804   -7.822619

----------------------------
CARTESIAN COORDINATES (A.U.)
----------------------------
  NO LB      ZA    FRAG     MASS         X           Y           Z
   0 C     6.0000    0    12.011   20.553811   -4.778294  -14.344833
   1 H     1.0000    0     1.008   21.372280   -3.459294  -15.720579
   2 H     1.0000    0     1.008   20.130655   -4.162885  -12.558331
   3 H     1.0000    0     1.008   20.607616   -6.670362  -14.782608

--------------------------------
INTERNAL COORDINATES (ANGSTROEM)
--------------------------------
 C      0   0   0     0.000000000000     0.00000000     0.00000000
 H      1   0   0     1.097622794129     0.00000000     0.00000000
 H      1   2   0     1.024662199476   119.74028134     0.00000000
 H      1   2   3     1.028084324140   117.31734053   193.18060688

---------------------------
INTERNAL COORDINATES (A.U.)
---------------------------
 C      0   0   0     0.000000000000     0.00000000     0.00000000
 H      1   0   0     2.074206479253     0.00000000     0.00000000
 H      1   2   0     1.936330936792   119.74028134     0.00000000
 H      1   2   3     1.942797815202   117.31734053   193.18060688

---------------------
BASIS SET INFORMATION
---------------------
There are 2 groups of distinct atoms

 Group   1 Type C   : 12s8p2d1f contracted to 8s5p2d1f pattern {51111111/41111/11/1}
 Group   2 Type H   : 7s2p contracted to 5s2p pattern {31111/11}

Atom   0C    basis set group =>   1
Atom   1H    basis set group =>   2
Atom   2H    basis set group =>   2
Atom   3H    basis set group =>   2
---------------------------------
AUXILIARY/J BASIS SET INFORMATION
---------------------------------
There are 2 groups of distinct atoms

 Group   1 Type C   : 20s17p16d8f3g contracted to 20s17p16d8f3g pattern {11111111111111111111/11111111111111111/1111111111111111/11111111/111}
 Group   2 Type H   : 17s7p3d contracted to 17s7p3d pattern {11111111111111111/1111111/111}

Atom   0C    basis set group =>   1
Atom   1H    basis set group =>   2
Atom   2H    basis set group =>   2
Atom   3H    basis set group =>   2
---------------------------------
AUXILIARY/C BASIS SET INFORMATION
---------------------------------
There are 2 groups of distinct atoms

 Group   1 Type C   : 20s17p16d8f3g contracted to 20s17p16d8f3g pattern {11111111111111111111/11111111111111111/1111111111111111/11111111/111}
 Group   2 Type H   : 17s7p3d contracted to 17s7p3d pattern {11111111111111111/1111111/111}

Atom   0C    basis set group =>   1
Atom   1H    basis set group =>   2
Atom   2H    basis set group =>   2
Atom   3H    basis set group =>   2
----------------------------------
AUXILIARY/JK BASIS SET INFORMATION
----------------------------------
There are 2 groups of distinct atoms

 Group   1 Type C   : 20s17p16d8f3g contracted to 20s17p16d8f3g pattern {11111111111111111111/11111111111111111/1111111111111111/11111111/111}
 Group   2 Type H   : 17s7p3d contracted to 17s7p3d pattern {11111111111111111/1111111/111}

Atom   0C    basis set group =>   1
Atom   1H    basis set group =>   2
Atom   2H    basis set group =>   2
Atom   3H    basis set group =>   2


           ************************************************************
           *        Program running with 4 parallel MPI-processes     *
           *              working on a common directory               *
           ************************************************************
------------------------------------------------------------------------------
                           ORCA GTO INTEGRAL CALCULATION
                           -- RI-GTO INTEGRALS CHOSEN --
------------------------------------------------------------------------------
------------------------------------------------------------------------------
                   ___                                                        
                  /   \      - P O W E R E D   B Y -                         
                 /     \                                                     
                 |  |  |   _    _      __       _____    __    __             
                 |  |  |  | |  | |    /  \     |  _  \  |  |  /  |          
                  \  \/   | |  | |   /    \    | | | |  |  | /  /          
                 / \  \   | |__| |  /  /\  \   | |_| |  |  |/  /          
                |  |  |   |  __  | /  /__\  \  |    /   |      \           
                |  |  |   | |  | | |   __   |  |    \   |  |\   \          
                \     /   | |  | | |  |  |  |  | |\  \  |  | \   \       
                 \___/    |_|  |_| |__|  |__|  |_| \__\ |__|  \__/        
                                                                              
                      - O R C A' S   B I G   F R I E N D -                    
                                      &                                       
                       - I N T E G R A L  F E E D E R -                       
                                                                              
 v1 FN, 2020, v2 2021                                                         
------------------------------------------------------------------------------


Reading SHARK input file /home/rwth0701/scratch/cs681498/orcajob__30556098-nSBk/512.SHARKINP.tmp ... ok
----------------------
SHARK INTEGRAL PACKAGE
----------------------

Number of atoms                             ...      4
Number of basis functions                   ...     73
Number of shells                            ...     37
Maximum angular momentum                    ...      3
Integral batch strategy                     ... SHARK/LIBINT Hybrid
RI-J (if used) integral strategy            ... SPLIT-RIJ (Revised 2003 algorithm where possible)
Printlevel                                  ...      1
Contraction scheme used                     ... SEGMENTED contraction
Coulomb Range Separation                    ... NOT USED
Exchange Range Separation                   ... NOT USED
Finite Nucleus Model                        ... NOT USED
Auxiliary Coulomb fitting basis             ... AVAILABLE
   # of basis functions in Aux-J            ...    393
   # of shells in Aux-J                     ...    145
   Maximum angular momentum in Aux-J        ...      4
Auxiliary J/K fitting basis                 ... AVAILABLE
   # of basis functions in Aux-JK           ...    393
   # of shells in Aux-JK                    ...    145
   Maximum angular momentum in Aux-JK       ...      4
Auxiliary Correlation fitting basis         ... AVAILABLE
   # of basis functions in Aux-C            ...    393
   # of shells in Aux-C                     ...    145
   Maximum angular momentum in Aux-C        ...      4
Auxiliary 'external' fitting basis          ... NOT available
Integral threshold                          ...     1.000000e-10
Primitive cut-off                           ...     1.000000e-11
Primitive pair pre-selection threshold      ...     1.000000e-11

Calculating pre-screening integrals         ... done (  0.0 sec) Dimension = 37
Organizing shell pair data                  ... done (  0.0 sec)
Shell pair information
Total number of shell pairs                 ...       703
Shell pairs after pre-screening             ...       688
Total number of primitive shell pairs       ...      1300
Primitive shell pairs kept                  ...      1183
          la=0 lb=0:    261 shell pairs
          la=1 lb=0:    253 shell pairs
          la=1 lb=1:     66 shell pairs
          la=2 lb=0:     46 shell pairs
          la=2 lb=1:     22 shell pairs
          la=2 lb=2:      3 shell pairs
          la=3 lb=0:     23 shell pairs
          la=3 lb=1:     11 shell pairs
          la=3 lb=2:      2 shell pairs
          la=3 lb=3:      1 shell pairs

Calculating one electron integrals          ... done (  0.0 sec)
Calculating RI/J V-Matrix + Cholesky decomp.... done (  0.1 sec)
Calculating RI/JK V-Matrix + Cholesky decomp... done (  0.0 sec)
Calculating RI/C V-Matrix + Cholesky decomp.... done (  0.1 sec)
Calculating Nuclear repulsion               ... done (  0.0 sec) ENN=      9.954665570054 Eh

SHARK setup successfully completed in   0.6 seconds

Maximum memory used throughout the entire GTOINT-calculation: 13.7 MB


           ************************************************************
           *        Program running with 4 parallel MPI-processes     *
           *              working on a common directory               *
           ************************************************************
-------------------------------------------------------------------------------
                                 ORCA SCF
-------------------------------------------------------------------------------

------------
SCF SETTINGS
------------
Hamiltonian:
 Density Functional     Method          .... DFT(GTOs)
 Exchange Functional    Exchange        .... B88
   X-Alpha parameter    XAlpha          ....  0.666667
   Becke's b parameter  XBeta           ....  0.004200
 Correlation Functional Correlation     .... LYP
 LDA part of GGA corr.  LDAOpt          .... VWN-5
 Gradients option       PostSCFGGA      .... off
 Hybrid DFT is turned on
   Fraction HF Exchange ScalHFX         ....  0.200000
   Scaling of DF-GGA-X  ScalDFX         ....  0.720000
   Scaling of DF-GGA-C  ScalDFC         ....  0.810000
   Scaling of DF-LDA-C  ScalLDAC        ....  1.000000
   Perturbative correction              ....  0.000000
   Density functional embedding theory  .... OFF
   NL short-range parameter             ....  4.800000
 RI-approximation to the Coulomb term is turned on
   Number of AuxJ basis functions       .... 393
   RIJ-COSX (HFX calculated with COS-X)).... on


General Settings:
 Integral files         IntName         .... /home/rwth0701/scratch/cs681498/orcajob__30556098-nSBk/512
 Hartree-Fock type      HFTyp           .... UHF
 Total Charge           Charge          ....    0
 Multiplicity           Mult            ....    2
 Number of Electrons    NEL             ....    9
 Basis Dimension        Dim             ....   73
 Nuclear Repulsion      ENuc            ....      9.9546655701 Eh

Convergence Acceleration:
 DIIS                   CNVDIIS         .... on
   Start iteration      DIISMaxIt       ....    12
   Startup error        DIISStart       ....  0.200000
   # of expansion vecs  DIISMaxEq       ....     5
   Bias factor          DIISBfac        ....   1.050
   Max. coefficient     DIISMaxC        ....  10.000
 Trust-Rad. Augm. Hess. CNVTRAH         .... auto
   Auto Start mean grad. ratio tolernc. ....  1.125000
   Auto Start start iteration           ....    20
   Auto Start num. interpolation iter.  ....    10
   Max. Number of Micro iterations      ....    16
   Max. Number of Macro iterations      .... Maxiter - #DIIS iter
   Number of Davidson start vectors     ....     2
   Converg. threshold I  (grad. norm)   ....   5.000e-05
   Converg. threshold II (energy diff.) ....   1.000e-06
   Grad. Scal. Fac. for Micro threshold ....   0.100
   Minimum threshold for Micro iter.    ....   0.010
   NR start threshold (gradient norm)   ....   0.001
   Initial trust radius                 ....   0.400
   Minimum AH scaling param. (alpha)    ....   1.000
   Maximum AH scaling param. (alpha)    .... 1000.000
   Orbital update algorithm             .... Taylor
   White noise on init. David. guess    .... on
   Maximum white noise                  ....   0.010
   Quad. conv. algorithm                .... NR
 SOSCF                  CNVSOSCF        .... off
 Level Shifting         CNVShift        .... on
   Level shift para.    LevelShift      ....    0.2500
   Turn off err/grad.   ShiftErr        ....    0.0010
 Zerner damping         CNVZerner       .... off
 Static damping         CNVDamp         .... on
   Fraction old density DampFac         ....    0.7000
   Max. Damping (<1)    DampMax         ....    0.9800
   Min. Damping (>=0)   DampMin         ....    0.0000
   Turn off err/grad.   DampErr         ....    0.1000
 Fernandez-Rico         CNVRico         .... off

SCF Procedure:
 Maximum # iterations   MaxIter         ....   125
 SCF integral mode      SCFMode         .... Direct
   Integral package                     .... SHARK and LIBINT hybrid scheme
 Reset frequency        DirectResetFreq ....    20
 Integral Threshold     Thresh          ....  1.000e-10 Eh
 Primitive CutOff       TCut            ....  1.000e-11 Eh

Convergence Tolerance:
 Convergence Check Mode ConvCheckMode   .... Total+1el-Energy
 Convergence forced     ConvForced      .... 0
 Energy Change          TolE            ....  1.000e-06 Eh
 1-El. energy change                    ....  1.000e-03 Eh
 DIIS Error             TolErr          ....  1.000e-06


Diagonalization of the overlap matrix:
Smallest eigenvalue                        ... 1.455e-03
Time for diagonalization                   ...    0.002 sec
Threshold for overlap eigenvalues          ... 1.000e-08
Number of eigenvalues below threshold      ... 0
Time for construction of square roots      ...    0.011 sec
Total time needed                          ...    0.017 sec

Time for model grid setup =    0.094 sec

------------------------------
INITIAL GUESS: MODEL POTENTIAL
------------------------------
Loading Hartree-Fock densities                     ... done
Calculating cut-offs                               ... done
Initializing the effective Hamiltonian             ... done
Setting up the integral package (SHARK)            ... done
Starting the Coulomb interaction                   ... done (   0.1 sec)
Reading the grid                                   ... done
Mapping shells                                     ... done
Starting the XC term evaluation                    ... done (   0.0 sec)
  promolecular density results
     # of electrons  =      8.998970416
     EX              =     -5.985258157
     EC              =     -0.261412017
     EX+EC           =     -6.246670175
Transforming the Hamiltonian                       ... done (   0.0 sec)
Diagonalizing the Hamiltonian                      ... done (   0.0 sec)
Back transforming the eigenvectors                 ... done (   0.0 sec)
Now organizing SCF variables                       ... done
                      ------------------
                      INITIAL GUESS DONE (   0.2 sec)
                      ------------------
-------------------
DFT GRID GENERATION
-------------------

General Integration Accuracy     IntAcc      ... 4.388
Radial Grid Type                 RadialGrid  ... OptM3 with GC (2021)
Angular Grid (max. ang.)         AngularGrid ... 4 (Lebedev-302)
Angular grid pruning method      GridPruning ... 4 (adaptive)
Weight generation scheme         WeightScheme... Becke
Basis function cutoff            BFCut       ... 1.0000e-10
Integration weight cutoff        WCut        ... 1.0000e-14
Angular grids for H and He will be reduced by one unit
Partially contracted basis set               ... off
Rotationally invariant grid construction     ... off

Total number of grid points                  ...    17033
Total number of batches                      ...      268
Average number of points per batch           ...       63
Average number of grid points per atom       ...     4258
Time for grid setup =    0.127 sec

--------------------
COSX GRID GENERATION
--------------------

GRIDX 1
-------
General Integration Accuracy     IntAcc      ... 3.816
Radial Grid Type                 RadialGrid  ... OptM3 with GC (2021)
Angular Grid (max. ang.)         AngularGrid ... 1 (Lebedev-50)
Angular grid pruning method      GridPruning ... 4 (adaptive)
Weight generation scheme         WeightScheme... Becke
Basis function cutoff            BFCut       ... 1.0000e-10
Integration weight cutoff        WCut        ... 1.0000e-14
Angular grids for H and He will be reduced by one unit
Partially contracted basis set               ... on
Rotationally invariant grid construction     ... off

Total number of grid points                  ...     2146
Total number of batches                      ...       35
Average number of points per batch           ...       61
Average number of grid points per atom       ...      536
UseSFitting                                  ... on

GRIDX 2
-------
General Integration Accuracy     IntAcc      ... 4.020
Radial Grid Type                 RadialGrid  ... OptM3 with GC (2021)
Angular Grid (max. ang.)         AngularGrid ... 2 (Lebedev-110)
Angular grid pruning method      GridPruning ... 4 (adaptive)
Weight generation scheme         WeightScheme... Becke
Basis function cutoff            BFCut       ... 1.0000e-10
Integration weight cutoff        WCut        ... 1.0000e-14
Angular grids for H and He will be reduced by one unit
Partially contracted basis set               ... on
Rotationally invariant grid construction     ... off

Total number of grid points                  ...     5055
Total number of batches                      ...       81
Average number of points per batch           ...       62
Average number of grid points per atom       ...     1264
UseSFitting                                  ... on

GRIDX 3
-------
General Integration Accuracy     IntAcc      ... 4.338
Radial Grid Type                 RadialGrid  ... OptM3 with GC (2021)
Angular Grid (max. ang.)         AngularGrid ... 3 (Lebedev-194)
Angular grid pruning method      GridPruning ... 4 (adaptive)
Weight generation scheme         WeightScheme... Becke
Basis function cutoff            BFCut       ... 1.0000e-10
Integration weight cutoff        WCut        ... 1.0000e-14
Angular grids for H and He will be reduced by one unit
Partially contracted basis set               ... on
Rotationally invariant grid construction     ... off

Total number of grid points                  ...    11722
Total number of batches                      ...      185
Average number of points per batch           ...       63
Average number of grid points per atom       ...     2930
UseSFitting                                  ... on

Time for X-Grid setup             =    0.212 sec

--------------
SCF ITERATIONS
--------------
ITER       Energy         Delta-E        Max-DP      RMS-DP      [F,P]     Damp
               ***  Starting incremental Fock matrix formation  ***
  0    -39.7759952113   0.000000000000 0.01656442  0.00052883  0.0983227 0.7000
  1    -39.7974912676  -0.021496056304 0.01040347  0.00039258  0.0513855 0.7000
                               ***Turning on DIIS***
  2    -39.8071371759  -0.009645908270 0.01686447  0.00068729  0.0212072 0.0000
  3    -39.8203351992  -0.013198023248 0.00798356  0.00029226  0.0292538 0.0000
  4    -39.8242147086  -0.003879509494 0.00277801  0.00008142  0.0059372 0.0000
  5    -39.8243748115  -0.000160102809 0.00100282  0.00003238  0.0018620 0.0000
  6    -39.8243919835  -0.000017171992 0.00077460  0.00002392  0.0007454 0.0000
               *** Restarting incremental Fock matrix formation ***
                                   *** Resetting DIIS ***
  7    -39.8243950348  -0.000003051335 0.00008431  0.00000291  0.0000902 0.0000
                 **** Energy Check signals convergence ****

               *****************************************************
               *                     SUCCESS                       *
               *           SCF CONVERGED AFTER   8 CYCLES          *
               *****************************************************

Old exchange energy                            =     -1.248653836 Eh
New exchange energy                            =     -1.248655225 Eh
Exchange energy change after final integration =     -0.000001389 Eh
Total energy after final integration           =    -39.824396492 Eh
Final COS-X integration done in                =     0.211 sec

----------------
TOTAL SCF ENERGY
----------------

Total Energy       :          -39.82439649 Eh           -1083.67692 eV

Components:
Nuclear Repulsion  :            9.95466557 Eh             270.88022 eV
Electronic Energy  :          -49.77906206 Eh           -1354.55714 eV
One Electron Energy:          -72.16138134 Eh           -1963.61101 eV
Two Electron Energy:           22.38231928 Eh             609.05387 eV
Max COSX asymmetry :            0.00000006 Eh               0.00000 eV

Virial components:
Potential Energy   :          -79.58528947 Eh           -2165.62582 eV
Kinetic Energy     :           39.76089298 Eh            1081.94890 eV
Virial Ratio       :            2.00159714


DFT components:
N(Alpha)           :        4.999999194873 electrons
N(Beta)            :        4.000000355631 electrons
N(Total)           :        8.999999550504 electrons
E(X)               :       -4.939574736998 Eh       
E(C)               :       -0.311148831141 Eh       
E(XC)              :       -5.250723568139 Eh       
DFET-embed. en.    :        0.000000000000 Eh       

---------------
SCF CONVERGENCE
---------------

  Last Energy change         ...   -6.8224e-08  Tolerance :   1.0000e-06
  Last MAX-Density change    ...    0.0000e+00  Tolerance :   1.0000e-05
  Last RMS-Density change    ...    0.0000e+00  Tolerance :   1.0000e-06
  Last DIIS Error            ...    6.6844e-05  Tolerance :   1.0000e-06

             **** THE GBW FILE WAS UPDATED (/home/rwth0701/scratch/cs681498/orcajob__30556098-nSBk/512.gbw) ****
             **** DENSITY /home/rwth0701/scratch/cs681498/orcajob__30556098-nSBk/512.scfp WAS UPDATED ****
             **** ENERGY FILE WAS UPDATED (/home/rwth0701/scratch/cs681498/orcajob__30556098-nSBk/512.en.tmp) ****
----------------------
UHF SPIN CONTAMINATION
----------------------

Warning: in a DFT calculation there is little theoretical justification to 
         calculate <S**2> as in Hartree-Fock theory. We will do it anyways
         but you should keep in mind that the values have only limited relevance

Expectation value of <S**2>     :     0.753280
Ideal value S*(S+1) for S=0.5   :     0.750000
Deviation                       :     0.003280

             **** THE GBW FILE WAS UPDATED (/home/rwth0701/scratch/cs681498/orcajob__30556098-nSBk/512.gbw) ****
             **** DENSITY /home/rwth0701/scratch/cs681498/orcajob__30556098-nSBk/512.scfp WAS UPDATED ****
----------------
ORBITAL ENERGIES
----------------
                 SPIN UP ORBITALS
  NO   OCC          E(Eh)            E(eV) 
   0   1.0000     -10.174927      -276.8738 
   1   1.0000      -0.696612       -18.9558 
   2   1.0000      -0.438474       -11.9315 
   3   1.0000      -0.419660       -11.4195 
   4   1.0000      -0.236007        -6.4221 
   5   0.0000       0.001762         0.0479 
   6   0.0000       0.036363         0.9895 
   7   0.0000       0.037535         1.0214 
   8   0.0000       0.047616         1.2957 
   9   0.0000       0.091313         2.4847 
  10   0.0000       0.099015         2.6943 
  11   0.0000       0.099482         2.7071 
  12   0.0000       0.221661         6.0317 
  13   0.0000       0.223518         6.0822 
  14   0.0000       0.248835         6.7712 
  15   0.0000       0.277315         7.5461 
  16   0.0000       0.304715         8.2917 
  17   0.0000       0.327413         8.9093 
  18   0.0000       0.358357         9.7514 
  19   0.0000       0.560026        15.2391 
  20   0.0000       0.564093        15.3497 
  21   0.0000       0.740944        20.1621 
  22   0.0000       0.743210        20.2238 
  23   0.0000       0.763110        20.7653 
  24   0.0000       0.858521        23.3615 
  25   0.0000       0.903498        24.5854 
  26   0.0000       0.910319        24.7710 
  27   0.0000       0.937524        25.5113 
  28   0.0000       0.991942        26.9921 
  29   0.0000       1.065395        28.9909 
  30   0.0000       1.070714        29.1356 
  31   0.0000       1.092367        29.7248 
  32   0.0000       1.188059        32.3287 
  33   0.0000       1.189757        32.3749 
  34   0.0000       1.477903        40.2158 
  35   0.0000       1.502962        40.8977 
  36   0.0000       1.514595        41.2142 
  37   0.0000       1.700522        46.2735 
  38   0.0000       1.752270        47.6817 
  39   0.0000       1.774632        48.2902 
  40   0.0000       2.715628        73.8960 
  41   0.0000       2.733504        74.3824 
  42   0.0000       2.891747        78.6884 
  43   0.0000       2.902188        78.9726 
  44   0.0000       2.914800        79.3158 
  45   0.0000       2.965579        80.6975 
  46   0.0000       3.012755        81.9812 
  47   0.0000       3.166661        86.1692 
  48   0.0000       3.179121        86.5083 
  49   0.0000       3.239289        88.1455 
  50   0.0000       3.247793        88.3770 
  51   0.0000       3.700207       100.6878 
  52   0.0000       3.830109       104.2226 
  53   0.0000       3.901844       106.1746 
  54   0.0000       3.925103       106.8075 
  55   0.0000       4.027575       109.5959 
  56   0.0000       4.112517       111.9073 
  57   0.0000       4.194898       114.1490 
  58   0.0000       4.217549       114.7653 
  59   0.0000       4.225849       114.9912 
  60   0.0000       4.790476       130.3555 
  61   0.0000       4.982030       135.5679 
  62   0.0000       5.397411       146.8710 
  63   0.0000       5.515213       150.0766 
  64   0.0000       5.628767       153.1665 
  65   0.0000       6.113471       166.3560 
  66   0.0000       6.228997       169.4996 
  67   0.0000       7.873842       214.2581 
  68   0.0000      29.149096       793.1872 
  69   0.0000      37.163923      1011.2817 
  70   0.0000      37.227416      1013.0095 
  71   0.0000      37.280042      1014.4415 
  72   0.0000     133.624297      3636.1020 

                 SPIN DOWN ORBITALS
  NO   OCC          E(Eh)            E(eV) 
   0   1.0000     -10.160628      -276.4848 
   1   1.0000      -0.657695       -17.8968 
   2   1.0000      -0.428410       -11.6576 
   3   1.0000      -0.410009       -11.1569 
   4   0.0000      -0.078305        -2.1308 
   5   0.0000       0.004606         0.1253 
   6   0.0000       0.035933         0.9778 
   7   0.0000       0.037119         1.0101 
   8   0.0000       0.060744         1.6529 
   9   0.0000       0.092436         2.5153 
  10   0.0000       0.099314         2.7025 
  11   0.0000       0.103729         2.8226 
  12   0.0000       0.222960         6.0670 
  13   0.0000       0.224798         6.1171 
  14   0.0000       0.269307         7.3282 
  15   0.0000       0.309710         8.4276 
  16   0.0000       0.311568         8.4782 
  17   0.0000       0.331813         9.0291 
  18   0.0000       0.372160        10.1270 
  19   0.0000       0.586786        15.9673 
  20   0.0000       0.591803        16.1038 
  21   0.0000       0.743270        20.2254 
  22   0.0000       0.745163        20.2769 
  23   0.0000       0.791438        21.5361 
  24   0.0000       0.856646        23.3105 
  25   0.0000       0.908913        24.7328 
  26   0.0000       0.914945        24.8969 
  27   0.0000       0.954674        25.9780 
  28   0.0000       1.013633        27.5824 
  29   0.0000       1.091700        29.7067 
  30   0.0000       1.112475        30.2720 
  31   0.0000       1.123246        30.5651 
  32   0.0000       1.200337        32.6628 
  33   0.0000       1.203035        32.7362 
  34   0.0000       1.498132        40.7662 
  35   0.0000       1.510132        41.0928 
  36   0.0000       1.527397        41.5626 
  37   0.0000       1.705187        46.4005 
  38   0.0000       1.760681        47.9106 
  39   0.0000       1.782839        48.5135 
  40   0.0000       2.755777        74.9885 
  41   0.0000       2.773353        75.4668 
  42   0.0000       2.904143        79.0257 
  43   0.0000       2.917533        79.3901 
  44   0.0000       2.967799        80.7579 
  45   0.0000       2.974217        80.9326 
  46   0.0000       3.065100        83.4056 
  47   0.0000       3.215497        87.4981 
  48   0.0000       3.224890        87.7537 
  49   0.0000       3.297607        89.7325 
  50   0.0000       3.306537        89.9754 
  51   0.0000       3.759802       102.3094 
  52   0.0000       3.831862       104.2703 
  53   0.0000       3.901514       106.1656 
  54   0.0000       3.927943       106.8848 
  55   0.0000       4.044437       110.0547 
  56   0.0000       4.130328       112.3919 
  57   0.0000       4.220673       114.8503 
  58   0.0000       4.221853       114.8825 
  59   0.0000       4.229889       115.1011 
  60   0.0000       4.791460       130.3822 
  61   0.0000       5.003870       136.1622 
  62   0.0000       5.396425       146.8442 
  63   0.0000       5.513602       150.0327 
  64   0.0000       5.627986       153.1453 
  65   0.0000       6.117140       166.4558 
  66   0.0000       6.234361       169.6456 
  67   0.0000       7.909647       215.2324 
  68   0.0000      29.175970       793.9185 
  69   0.0000      37.152570      1010.9728 
  70   0.0000      37.216963      1012.7251 
  71   0.0000      37.269804      1014.1629 
  72   0.0000     133.632168      3636.3161 

                    ********************************
                    * MULLIKEN POPULATION ANALYSIS *
                    ********************************

--------------------------------------------
MULLIKEN ATOMIC CHARGES AND SPIN POPULATIONS
--------------------------------------------
   0 C :   -0.425775    1.095120
   1 H :    0.135928   -0.034780
   2 H :    0.145850   -0.029908
   3 H :    0.143996   -0.030432
Sum of atomic charges         :    0.0000000
Sum of atomic spin populations:    1.0000000

-----------------------------------------------------
MULLIKEN REDUCED ORBITAL CHARGES AND SPIN POPULATIONS
-----------------------------------------------------
CHARGE
  0 C s       :     3.315268  s :     3.315268
      pz      :     1.049024  p :     3.083918
      px      :     0.974785
      py      :     1.060109
      dz2     :     0.006474  d :     0.023370
      dxz     :     0.002553
      dyz     :     0.006841
      dx2y2   :     0.005694
      dxy     :     0.001809
      f0      :     0.000505  f :     0.003219
      f+1     :     0.000407
      f-1     :     0.000789
      f+2     :     0.000309
      f-2     :     0.000419
      f+3     :     0.000138
      f-3     :     0.000651
  1 H s       :     0.838778  s :     0.838778
      pz      :     0.007825  p :     0.025294
      px      :     0.010175
      py      :     0.007294
  2 H s       :     0.825654  s :     0.825654
      pz      :     0.010206  p :     0.028496
      px      :     0.011079
      py      :     0.007211
  3 H s       :     0.827789  s :     0.827789
      pz      :     0.007415  p :     0.028215
      px      :     0.010807
      py      :     0.009993

SPIN
  0 C s       :     0.070038  s :     0.070038
      pz      :     0.139582  p :     1.029493
      px      :     0.842224
      py      :     0.047688
      dz2     :    -0.000197  d :    -0.003056
      dxz     :    -0.001298
      dyz     :     0.000861
      dx2y2   :    -0.002275
      dxy     :    -0.000147
      f0      :    -0.000075  f :    -0.001355
      f+1     :    -0.000353
      f-1     :    -0.000047
      f+2     :    -0.000160
      f-2     :    -0.000203
      f+3     :    -0.000095
      f-3     :    -0.000422
  1 H s       :    -0.044404  s :    -0.044404
      pz      :     0.001145  p :     0.009624
      px      :     0.008496
      py      :    -0.000017
  2 H s       :    -0.040984  s :    -0.040984
      pz      :     0.000990  p :     0.011076
      px      :     0.010127
      py      :    -0.000041
  3 H s       :    -0.041274  s :    -0.041274
      pz      :     0.001089  p :     0.010842
      px      :     0.009802
      py      :    -0.000049


                     *******************************
                     * LOEWDIN POPULATION ANALYSIS *
                     *******************************

-------------------------------------------
LOEWDIN ATOMIC CHARGES AND SPIN POPULATIONS
-------------------------------------------
   0 C :   -0.120136    0.893382
   1 H :    0.063696    0.027691
   2 H :    0.027382    0.039741
   3 H :    0.029058    0.039186

----------------------------------------------------
LOEWDIN REDUCED ORBITAL CHARGES AND SPIN POPULATIONS
----------------------------------------------------
CHARGE
  0 C s       :     2.857872  s :     2.857872
      pz      :     1.117357  p :     3.161052
      px      :     0.895882
      py      :     1.147814
      dz2     :     0.027290  d :     0.093293
      dxz     :     0.006430
      dyz     :     0.036070
      dx2y2   :     0.016346
      dxy     :     0.007156
      f0      :     0.001121  f :     0.007919
      f+1     :     0.000978
      f-1     :     0.001621
      f+2     :     0.000851
      f-2     :     0.001323
      f+3     :     0.000397
      f-3     :     0.001629
  1 H s       :     0.798957  s :     0.798957
      pz      :     0.046877  p :     0.137346
      px      :     0.045125
      py      :     0.045344
  2 H s       :     0.810846  s :     0.810846
      pz      :     0.070808  p :     0.161772
      px      :     0.048886
      py      :     0.042078
  3 H s       :     0.810036  s :     0.810036
      pz      :     0.040830  p :     0.160906
      px      :     0.047273
      py      :     0.072804

SPIN
  0 C s       :     0.020000  s :     0.020000
      pz      :     0.107979  p :     0.881696
      px      :     0.749500
      py      :     0.024217
      dz2     :    -0.001547  d :    -0.007075
      dxz     :    -0.001284
      dyz     :    -0.001228
      dx2y2   :    -0.002530
      dxy     :    -0.000486
      f0      :    -0.000120  f :    -0.001240
      f+1     :    -0.000288
      f-1     :    -0.000135
      f+2     :    -0.000072
      f-2     :    -0.000212
      f+3     :    -0.000018
      f-3     :    -0.000396
  1 H s       :    -0.016829  s :    -0.016829
      pz      :     0.006774  p :     0.044520
      px      :     0.035198
      py      :     0.002547
  2 H s       :    -0.014234  s :    -0.014234
      pz      :     0.009132  p :     0.053975
      px      :     0.043120
      py      :     0.001723
  3 H s       :    -0.014258  s :    -0.014258
      pz      :     0.006300  p :     0.053444
      px      :     0.042325
      py      :     0.004820


                      *****************************
                      * MAYER POPULATION ANALYSIS *
                      *****************************

  NA   - Mulliken gross atomic population
  ZA   - Total nuclear charge
  QA   - Mulliken gross atomic charge
  VA   - Mayer's total valence
  BVA  - Mayer's bonded valence
  FA   - Mayer's free valence

  ATOM       NA         ZA         QA         VA         BVA        FA
  0 C      6.4258     6.0000    -0.4258     3.8857     2.9447     0.9410
  1 H      0.8641     1.0000     0.1359     0.9852     0.9832     0.0020
  2 H      0.8542     1.0000     0.1458     0.9856     0.9839     0.0017
  3 H      0.8560     1.0000     0.1440     0.9846     0.9828     0.0018

  Mayer bond orders larger than 0.100000
B(  0-C ,  1-H ) :   0.9818 B(  0-C ,  2-H ) :   0.9814 B(  0-C ,  3-H ) :   0.9815 


-------
TIMINGS
-------

Total SCF time: 0 days 0 hours 0 min 4 sec 

Total time                  ....       4.655 sec
Sum of individual times     ....       4.112 sec  ( 88.3%)

Fock matrix formation       ....       3.409 sec  ( 73.2%)
  Split-RI-J                ....       0.454 sec  ( 13.3% of F)
  Chain of spheres X        ....       1.032 sec  ( 30.3% of F)
  XC integration            ....       1.311 sec  ( 38.5% of F)
    Basis function eval.    ....       0.115 sec  (  8.8% of XC)
    Density eval.           ....       0.111 sec  (  8.4% of XC)
    XC-Functional eval.     ....       0.107 sec  (  8.1% of XC)
    XC-Potential eval.      ....       0.161 sec  ( 12.3% of XC)
Diagonalization             ....       0.042 sec  (  0.9%)
Density matrix formation    ....       0.002 sec  (  0.1%)
Population analysis         ....       0.062 sec  (  1.3%)
Initial guess               ....       0.105 sec  (  2.3%)
Orbital Transformation      ....       0.000 sec  (  0.0%)
Orbital Orthonormalization  ....       0.000 sec  (  0.0%)
DIIS solution               ....       0.058 sec  (  1.3%)
Grid generation             ....       0.433 sec  (  9.3%)

Maximum memory used throughout the entire SCF-calculation: 59.0 MB

-------------------------   --------------------
FINAL SINGLE POINT ENERGY       -39.824396492240
-------------------------   --------------------

   --->>> g-tensor requested, so NeedSOC=true

                            ***************************************
                            *     ORCA property calculations      *
                            ***************************************

                                    ---------------------
                                    Active property flags
                                    ---------------------
   (+) Dipole Moment
   (+) g-tensor
   (+) Nuclear properties (Hyperfine,Quadrupole)
   (+) Spin-Orbit Integrals are needed


------------------------------------------------------------------------------
                       ORCA ELECTRIC PROPERTIES CALCULATION
------------------------------------------------------------------------------

Dipole Moment Calculation                       ... on
Quadrupole Moment Calculation                   ... off
Polarizability Calculation                      ... off
GBWName                                         ... /home/rwth0701/scratch/cs681498/orcajob__30556098-nSBk/512.gbw
Electron density                                ... /home/rwth0701/scratch/cs681498/orcajob__30556098-nSBk/512.scfp
The origin for moment calculation is the CENTER OF MASS  = (20.583921, -4.775456 -14.346644)

-------------
DIPOLE MOMENT
-------------
                                X             Y             Z
Electronic contribution:     -0.12182      -0.02956       0.03336
Nuclear contribution   :      0.17812       0.01679      -0.01072
                        -----------------------------------------
Total Dipole Moment    :      0.05630      -0.01276       0.02265
                        -----------------------------------------
Magnitude (a.u.)       :      0.06201
Magnitude (Debye)      :      0.15763



--------------------
Rotational spectrum 
--------------------
 
Rotational constants in cm-1:    10.374552     9.791448     5.074524 
Rotational constants in MHz : 311021.255615 293540.239545 152130.409697 

 Dipole components along the rotational axes: 
x,y,z [a.u.] :     0.004029    -0.003634     0.061776 
x,y,z [Debye]:     0.010241    -0.009238     0.157021 

 


           ************************************************************
           *        Program running with 4 parallel MPI-processes     *
           *              working on a common directory               *
           ************************************************************
------------------------------------------------------------------------------
                         ORCA SPIN-ORBIT COUPLING CALCULATION
------------------------------------------------------------------------------

GBW file                                    ... /home/rwth0701/scratch/cs681498/orcajob__30556098-nSBk/512.gbw
Input density                               ... /home/rwth0701/scratch/cs681498/orcajob__30556098-nSBk/512.scfp
Output integrals                            ... /home/rwth0701/scratch/cs681498/orcajob__30556098-nSBk/512
Operator type                               ... Mean-field/Effective potential
   One-Electron Terms                       ... 1
   Coulomb Contribution                     ... 3
   Exchange Contribution                    ... 3
   Correlation Contribution                 ... 0
   Maximum number of centers                ... 4
SHARK 2-electron RIJ-SOMF                   ... done (  0.2 sec)
SHARK 1-electron  MaxCenter=4               ... done (  0.0 sec)
SHARK 2-electron DoJ,X=0,1 MaxCenter=1      ... done (  0.1 sec)

Maximum memory used throughout the entire SOC-calculation: 11.3 MB
Total time for SOC:  2.260


           ************************************************************
           *        Program running with 4 parallel MPI-processes     *
           *              working on a common directory               *
           ************************************************************
------------------------------------------------------------------------------
                                ORCA EPR/NMR CALCULATION
------------------------------------------------------------------------------

GBWName                      ... /home/rwth0701/scratch/cs681498/orcajob__30556098-nSBk/512.gbw
Electron density             ... /home/rwth0701/scratch/cs681498/orcajob__30556098-nSBk/512.scfp
Spin density                 ... /home/rwth0701/scratch/cs681498/orcajob__30556098-nSBk/512.scfr
Spin-orbit integrals         ... /home/rwth0701/scratch/cs681498/orcajob__30556098-nSBk/512
Treatment of gauge           ... GIAO (approximations 1/2el = 0,0)
Details of the CP(SCF) procedure:
       Solver   = POPLE   
       MaxIter  =    64   
       Tolerance=    1.000e-03
       COSX Grid=     1   
       Op-0     =   0-  4 =>   5- 72
       Op-1     =   0-  3 =>   4- 72
Multiplicity                 ... 2
g-tensor                     ... 1
NMR chemical shifts          ... 0
NMR spin-spin couplings      ... 0
NMR spectrum                 ... 0
Number of nuclei for epr/nmr ... 4
   Nucleus:   1H 
       Hyperfine : Isotope=    1 I=   0.500 P= 533.551
       Quadrupole: Isotope=    2 I=   1.000 Q=   0.003
       Spin-Orbit: Zeff=   1.000
       Nuclear Spin-Spin: Gn=   0.000
       EPRNMR Input: 
       rho(0)=N f(grad)=N a(iso)=Y a(dip)=Y a(orb)=Y sigma(nmr)=N spin-spin(nmr)=all-N,DSO-N,PSO-N,FC-N,SD-N
   Nucleus:   2H 
       Hyperfine : Isotope=    1 I=   0.500 P= 533.551
       Quadrupole: Isotope=    2 I=   1.000 Q=   0.003
       Spin-Orbit: Zeff=   1.000
       Nuclear Spin-Spin: Gn=   0.000
       EPRNMR Input: 
       rho(0)=N f(grad)=N a(iso)=Y a(dip)=Y a(orb)=Y sigma(nmr)=N spin-spin(nmr)=all-N,DSO-N,PSO-N,FC-N,SD-N
   Nucleus:   3H 
       Hyperfine : Isotope=    1 I=   0.500 P= 533.551
       Quadrupole: Isotope=    2 I=   1.000 Q=   0.003
       Spin-Orbit: Zeff=   1.000
       Nuclear Spin-Spin: Gn=   0.000
       EPRNMR Input: 
       rho(0)=N f(grad)=N a(iso)=Y a(dip)=Y a(orb)=Y sigma(nmr)=N spin-spin(nmr)=all-N,DSO-N,PSO-N,FC-N,SD-N
   Nucleus:   0C 
       Hyperfine : Isotope=   13 I=   0.500 P= 134.190
       Quadrupole: Isotope=   13 I=   0.500 Q=   0.000
       Spin-Orbit: Zeff=   3.600
       Nuclear Spin-Spin: Gn=   0.000
       EPRNMR Input: 
       rho(0)=N f(grad)=N a(iso)=Y a(dip)=Y a(orb)=Y sigma(nmr)=N spin-spin(nmr)=all-N,DSO-N,PSO-N,FC-N,SD-N
Forming RHS of the CP-SCF equations         ... 
Calculating right hand sides for GIAO treatment        ... 
  Entering RightHandSide GIAO. ScalHFX=    0.2000 NeedHFX=1
     -> 1-electron GIAO integrals will be done analytically
     -> RIJCOSX used in SCF. Same chosen for GIAO calculation.
     Making grid for GIAO integrations   ...

GRID GIAO
---------

General Integration Accuracy     IntAcc      ... 4.388
Radial Grid Type                 RadialGrid  ... OptM3 with GC (2021)
Angular Grid (max. ang.)         AngularGrid ... 4 (Lebedev-302)
Angular grid pruning method      GridPruning ... 4 (adaptive)
Weight generation scheme         WeightScheme... Becke
Basis function cutoff            BFCut       ... 1.0000e-10
Integration weight cutoff        WCut        ... 1.0000e-14
Angular grids for H and He will be reduced by one unit
Partially contracted basis set               ... off
Rotationally invariant grid construction     ... off

Total number of grid points                  ...    17033
Total number of batches                      ...      268
Average number of points per batch           ...       63
Average number of grid points per atom       ...     4258

  One-electron GIAO integrals (SHARK)     ... done
  Calculating G(B)[P]                     ... (RI-J: SHARK-ok) (COSX-ok) (add-J+K:ok) => dG/dB done
  DFT XC-terms                            ... done
  Extracting occupied and virtual blocks  ... 
  Operator  0  NO=   5 NV=  68 
  Operator  1  NO=   4 NV=  69 
  Transforming and RHS contribution       ... done
  Adding eps_i * S(B)_ai terms            ... done
  Projecting overlap derivatives          ... done
  Building G[dS/dB_ij] (COSX)             ... done
  Transforming to MO basis                ... done
  Summing G[dS/dB_ij] into RHS contribs.  ... done

  GIAO profiling information: 
    Total GIAO time               ...       0.9 sec
       GIAO 1-electron integrals  ...       0.0 sec (  1.2%)
       GIAO G(dS/dB) terms        ...       0.1 sec ( 11.8%)
       GIAO RI-J                  ...       0.1 sec ( 14.5%)
       GIAO COSX                  ...       0.2 sec ( 19.5%)
       GIAO XC-terms              ...       0.3 sec ( 38.3%)
       Right hand side assembly   ...       0.0 sec (  0.1%)

  GIAO right hand side done


------------------------------------------------------------------------------
                           ORCA CP-SCF CALCULATION
------------------------------------------------------------------------------

Input orbitals are from        ... /home/rwth0701/scratch/cs681498/orcajob__30556098-nSBk/512.gbw
Input Perturbation             ... /home/rwth0701/scratch/cs681498/orcajob__30556098-nSBk/512.pin.tmp
Wavefunction output            ... /home/rwth0701/scratch/cs681498/orcajob__30556098-nSBk/512.pout.tmp
Perturbation mode              ... Imaginary perturbation
Solver                         ... POPLE
Max. number of iterations      ... 64
Convergence tolerance          ... 1.000e-03
Integral handling              ... Direct
DFT GridXC                     ... 1
COSX GridX                     ... 1
COSX IntAccX                   ... 3.067
COSX Algorithm                 ... Auto
Number of perturbations        ... 3
Number of operators            ... 2
Orbital ranges used for CP-SCF:
 Operator 0:  Orbitals   0...  4  to   5... 72
 Operator 1:  Orbitals   0...  3  to   4... 72
Variables per perturbation     ... 616
DFT calculation                         ... on
XC functional terms                     ... off
Hybrid DFT                              ... on
   Exchange mixing (SCF)                ...  0.200
   Exchange mixing (CP-SCF)             ...  0.200
   GGA exch. scaling(SCF)               ...  0.720
   GGA exch. scaling (CP-SCF)           ...  0.720
   GGA corr. scaling (SCF)              ...  0.810
   GGA corr. scaling (CP-SCF)           ...  0.810

CP-SCF GRID
-----------

General Integration Accuracy     IntAcc      ... 3.467
Radial Grid Type                 RadialGrid  ... OptM3 with GC (2021)
Angular Grid (max. ang.)         AngularGrid ... 1 (Lebedev-50)
Angular grid pruning method      GridPruning ... 4 (adaptive)
Weight generation scheme         WeightScheme... Becke
Basis function cutoff            BFCut       ... 1.0000e-10
Integration weight cutoff        WCut        ... 1.0000e-14
Angular grids for H and He will be reduced by one unit
Partially contracted basis set               ... off
Rotationally invariant grid construction     ... off

Total number of grid points                  ...     2338
Total number of batches                      ...       38
Average number of points per batch           ...       61
Average number of grid points per atom       ...      584

CP-SCF GRIDX
------------

General Integration Accuracy     IntAcc      ... 3.067
Radial Grid Type                 RadialGrid  ... OptM3 with GC (2021)
Angular Grid (max. ang.)         AngularGrid ... 1 (Lebedev-50)
Angular grid pruning method      GridPruning ... 4 (adaptive)
Weight generation scheme         WeightScheme... Becke
Basis function cutoff            BFCut       ... 1.0000e-10
Integration weight cutoff        WCut        ... 1.0000e-14
Angular grids for H and He will be reduced by one unit
Partially contracted basis set               ... on
Rotationally invariant grid construction     ... off

Total number of grid points                  ...     1072
Total number of batches                      ...       20
Average number of points per batch           ...       53
Average number of grid points per atom       ...      268

Memory available               ... 1014.6 MB
Memory needed per perturbation ...   0.4 MB
Perturbations treated per batch... 3
Number of batches              ... 1
     CP-SCF ITERATION   0:   8.7976e-01 (   0.1 sec   0/  3 done)
     CP-SCF ITERATION   1:   2.3900e-02 (   0.1 sec   0/  3 done)
     CP-SCF ITERATION   2:   1.5732e-03 (   0.1 sec   0/  3 done)
     CP-SCF ITERATION   3:   5.8590e-05 (   0.1 sec   3/  3 done)
                    *** THE CP-SCF HAS CONVERGED ***

Forming final perturbed densities           ... done
Transforming perturbed density to AO basis  ... done

Magnetic field perturbation calculated in  1.399 sec
GIAO: Diamagnetic terms      (analytic)     (SHARK) ... done
GIAO: 1el-Paramagnetic terms (analytic)     (SHARK) ... done

-------------------
ELECTRONIC G-MATRIX
-------------------

 The g-matrix: 
              2.0023194    0.0000825   -0.0002097
              0.0000817    2.0029120    0.0000214
             -0.0002224    0.0000223    2.0028533

 gel          2.0023193    2.0023193    2.0023193
 gRMC        -0.0001261   -0.0001261   -0.0001261
 gDSO(tot)    0.0000342    0.0000711    0.0000709
 gPSO(tot)    0.0000050    0.0006542    0.0006698
             ----------   ----------   ----------
 g(tot)       2.0022323    2.0029185    2.0029338 iso=  2.0026949
 Delta-g     -0.0000869    0.0005992    0.0006145 iso=  0.0003756
 Orientation: 
  X          -0.9358517    0.0708185   -0.3452047
  Y           0.1237130   -0.8512229   -0.5100144
  Z          -0.3299647   -0.5200042    0.7878572

Notes:  (1) The g-matrix conforms to the "BgS" spin Hamiltonian convention. 
        (2) The principal values are square roots of the eigenvalues of g*gT.
        (3) Orientations are eigenvectors of g*gT written as column vectors.
        (4) Individual contributions are projections of the full matrices onto the eigenvectors of g*gT.
        (5) Tensor is right-handed.


-----------------------------------------
ELECTRIC AND MAGNETIC HYPERFINE STRUCTURE
-----------------------------------------

 -----------------------------------------------------------
 Nucleus   1H : A:ISTP=    1 I=  0.5 P=533.5514 MHz/au**3
                Q:ISTP=    2 I=  1.0 Q=  0.0029 barn     
 -----------------------------------------------------------
 Solving for nuclear perturbation:
Forming RHS of the CP-SCF equations         ... 
Calc. nucleus orbit integrals (SHARK)       ... done

------------------------------------------------------------------------------
                           ORCA CP-SCF CALCULATION
------------------------------------------------------------------------------

Input orbitals are from        ... /home/rwth0701/scratch/cs681498/orcajob__30556098-nSBk/512.gbw
Input Perturbation             ... /home/rwth0701/scratch/cs681498/orcajob__30556098-nSBk/512.pin.tmp
Wavefunction output            ... /home/rwth0701/scratch/cs681498/orcajob__30556098-nSBk/512.pout.tmp
Perturbation mode              ... Imaginary perturbation
Solver                         ... POPLE
Max. number of iterations      ... 64
Convergence tolerance          ... 1.000e-03
Integral handling              ... Direct
DFT GridXC                     ... 1
COSX GridX                     ... 1
COSX IntAccX                   ... 3.067
COSX Algorithm                 ... Auto
Number of perturbations        ... 3
Number of operators            ... 2
Orbital ranges used for CP-SCF:
 Operator 0:  Orbitals   0...  4  to   5... 72
 Operator 1:  Orbitals   0...  3  to   4... 72
Variables per perturbation     ... 616
DFT calculation                         ... on
XC functional terms                     ... off
Hybrid DFT                              ... on
   Exchange mixing (SCF)                ...  0.200
   Exchange mixing (CP-SCF)             ...  0.200
   GGA exch. scaling(SCF)               ...  0.720
   GGA exch. scaling (CP-SCF)           ...  0.720
   GGA corr. scaling (SCF)              ...  0.810
   GGA corr. scaling (CP-SCF)           ...  0.810

CP-SCF GRID
-----------

General Integration Accuracy     IntAcc      ... 3.467
Radial Grid Type                 RadialGrid  ... OptM3 with GC (2021)
Angular Grid (max. ang.)         AngularGrid ... 1 (Lebedev-50)
Angular grid pruning method      GridPruning ... 4 (adaptive)
Weight generation scheme         WeightScheme... Becke
Basis function cutoff            BFCut       ... 1.0000e-10
Integration weight cutoff        WCut        ... 1.0000e-14
Angular grids for H and He will be reduced by one unit
Partially contracted basis set               ... off
Rotationally invariant grid construction     ... off

Total number of grid points                  ...     2338
Total number of batches                      ...       38
Average number of points per batch           ...       61
Average number of grid points per atom       ...      584

CP-SCF GRIDX
------------

General Integration Accuracy     IntAcc      ... 3.067
Radial Grid Type                 RadialGrid  ... OptM3 with GC (2021)
Angular Grid (max. ang.)         AngularGrid ... 1 (Lebedev-50)
Angular grid pruning method      GridPruning ... 4 (adaptive)
Weight generation scheme         WeightScheme... Becke
Basis function cutoff            BFCut       ... 1.0000e-10
Integration weight cutoff        WCut        ... 1.0000e-14
Angular grids for H and He will be reduced by one unit
Partially contracted basis set               ... on
Rotationally invariant grid construction     ... off

Total number of grid points                  ...     1072
Total number of batches                      ...       20
Average number of points per batch           ...       53
Average number of grid points per atom       ...      268

Memory available               ... 968.0 MB
Memory needed per perturbation ...   0.4 MB
Perturbations treated per batch... 3
Number of batches              ... 1
     CP-SCF ITERATION   0:   5.6996e-02 (   0.1 sec   0/  3 done)
     CP-SCF ITERATION   1:   2.1889e-03 (   0.1 sec   0/  3 done)
     CP-SCF ITERATION   2:   1.8903e-04 (   0.1 sec   3/  3 done)
                    *** THE CP-SCF HAS CONVERGED ***

Forming final perturbed densities           ... done
Transforming perturbed density to AO basis  ... done

 Raw HFC matrix (all values in MHz): 
 -----------------------------------
               -56.5597              13.5143              -6.7222
                13.5144             -68.8090             -34.2612
                -6.7223             -34.2612             -61.6579

 A(FC)         -62.3573             -62.3573             -62.3573
 A(SD)          37.7929               0.3083             -38.1013
 A(ORB+DIA)      0.0161              -0.0007               0.0300    A(PC) =   0.0151
 A(ORB)          0.0114               0.0004               0.0287    A(PC) =   0.0135
 A(DIA)          0.0047              -0.0011               0.0013    A(PC) =   0.0016
             ----------           ----------           ----------
 A(Tot)        -24.5483             -62.0497            -100.4285    A(iso)=  -62.3422
 Orientation: 
  X           0.4058285            0.9041123            0.1337319
  Y           0.6337033           -0.1729219           -0.7540014
  Z          -0.6585767            0.3907417           -0.6431156

Notes:  (1) The A matrix conforms to the "SAI" spin Hamiltonian convention.
        (2) Tensor is right-handed.

 -----------------------------------------------------------
 Nucleus   2H : A:ISTP=    1 I=  0.5 P=533.5514 MHz/au**3
                Q:ISTP=    2 I=  1.0 Q=  0.0029 barn     
 -----------------------------------------------------------
 Solving for nuclear perturbation:
Forming RHS of the CP-SCF equations         ... 
Calc. nucleus orbit integrals (SHARK)       ... done

------------------------------------------------------------------------------
                           ORCA CP-SCF CALCULATION
------------------------------------------------------------------------------

Input orbitals are from        ... /home/rwth0701/scratch/cs681498/orcajob__30556098-nSBk/512.gbw
Input Perturbation             ... /home/rwth0701/scratch/cs681498/orcajob__30556098-nSBk/512.pin.tmp
Wavefunction output            ... /home/rwth0701/scratch/cs681498/orcajob__30556098-nSBk/512.pout.tmp
Perturbation mode              ... Imaginary perturbation
Solver                         ... POPLE
Max. number of iterations      ... 64
Convergence tolerance          ... 1.000e-03
Integral handling              ... Direct
DFT GridXC                     ... 1
COSX GridX                     ... 1
COSX IntAccX                   ... 3.067
COSX Algorithm                 ... Auto
Number of perturbations        ... 3
Number of operators            ... 2
Orbital ranges used for CP-SCF:
 Operator 0:  Orbitals   0...  4  to   5... 72
 Operator 1:  Orbitals   0...  3  to   4... 72
Variables per perturbation     ... 616
DFT calculation                         ... on
XC functional terms                     ... off
Hybrid DFT                              ... on
   Exchange mixing (SCF)                ...  0.200
   Exchange mixing (CP-SCF)             ...  0.200
   GGA exch. scaling(SCF)               ...  0.720
   GGA exch. scaling (CP-SCF)           ...  0.720
   GGA corr. scaling (SCF)              ...  0.810
   GGA corr. scaling (CP-SCF)           ...  0.810

CP-SCF GRID
-----------

General Integration Accuracy     IntAcc      ... 3.467
Radial Grid Type                 RadialGrid  ... OptM3 with GC (2021)
Angular Grid (max. ang.)         AngularGrid ... 1 (Lebedev-50)
Angular grid pruning method      GridPruning ... 4 (adaptive)
Weight generation scheme         WeightScheme... Becke
Basis function cutoff            BFCut       ... 1.0000e-10
Integration weight cutoff        WCut        ... 1.0000e-14
Angular grids for H and He will be reduced by one unit
Partially contracted basis set               ... off
Rotationally invariant grid construction     ... off

Total number of grid points                  ...     2338
Total number of batches                      ...       38
Average number of points per batch           ...       61
Average number of grid points per atom       ...      584

CP-SCF GRIDX
------------

General Integration Accuracy     IntAcc      ... 3.067
Radial Grid Type                 RadialGrid  ... OptM3 with GC (2021)
Angular Grid (max. ang.)         AngularGrid ... 1 (Lebedev-50)
Angular grid pruning method      GridPruning ... 4 (adaptive)
Weight generation scheme         WeightScheme... Becke
Basis function cutoff            BFCut       ... 1.0000e-10
Integration weight cutoff        WCut        ... 1.0000e-14
Angular grids for H and He will be reduced by one unit
Partially contracted basis set               ... on
Rotationally invariant grid construction     ... off

Total number of grid points                  ...     1072
Total number of batches                      ...       20
Average number of points per batch           ...       53
Average number of grid points per atom       ...      268

Memory available               ... 967.8 MB
Memory needed per perturbation ...   0.4 MB
Perturbations treated per batch... 3
Number of batches              ... 1
     CP-SCF ITERATION   0:   7.1980e-02 (   0.1 sec   0/  3 done)
     CP-SCF ITERATION   1:   2.7793e-03 (   0.1 sec   0/  3 done)
     CP-SCF ITERATION   2:   2.0196e-04 (   0.1 sec   3/  3 done)
                    *** THE CP-SCF HAS CONVERGED ***

Forming final perturbed densities           ... done
Transforming perturbed density to AO basis  ... done

 Raw HFC matrix (all values in MHz): 
 -----------------------------------
               -57.6042             -12.2336              -4.0254
               -12.2334             -95.1895              22.6802
                -4.0253              22.6812             -29.5873

 A(FC)         -60.8094             -60.8094             -60.8094
 A(SD)          39.8717               3.9884             -43.8602
 A(ORB+DIA)      0.0147              -0.0006               0.0331    A(PC) =   0.0157
 A(ORB)          0.0091               0.0006               0.0315    A(PC) =   0.0137
 A(DIA)          0.0056              -0.0012               0.0017    A(PC) =   0.0020
             ----------           ----------           ----------
 A(Tot)        -20.9230             -56.8216            -104.6365    A(iso)=  -60.7937
 Orientation: 
  X          -0.2072325           -0.9531236           -0.2204770
  Y           0.3167987            0.1478443           -0.9368995
  Z           0.9255773           -0.2640029            0.2713101

Notes:  (1) The A matrix conforms to the "SAI" spin Hamiltonian convention.
        (2) Tensor is right-handed.

 -----------------------------------------------------------
 Nucleus   3H : A:ISTP=    1 I=  0.5 P=533.5514 MHz/au**3
                Q:ISTP=    2 I=  1.0 Q=  0.0029 barn     
 -----------------------------------------------------------
 Solving for nuclear perturbation:
Forming RHS of the CP-SCF equations         ... 
Calc. nucleus orbit integrals (SHARK)       ... done

------------------------------------------------------------------------------
                           ORCA CP-SCF CALCULATION
------------------------------------------------------------------------------

Input orbitals are from        ... /home/rwth0701/scratch/cs681498/orcajob__30556098-nSBk/512.gbw
Input Perturbation             ... /home/rwth0701/scratch/cs681498/orcajob__30556098-nSBk/512.pin.tmp
Wavefunction output            ... /home/rwth0701/scratch/cs681498/orcajob__30556098-nSBk/512.pout.tmp
Perturbation mode              ... Imaginary perturbation
Solver                         ... POPLE
Max. number of iterations      ... 64
Convergence tolerance          ... 1.000e-03
Integral handling              ... Direct
DFT GridXC                     ... 1
COSX GridX                     ... 1
COSX IntAccX                   ... 3.067
COSX Algorithm                 ... Auto
Number of perturbations        ... 3
Number of operators            ... 2
Orbital ranges used for CP-SCF:
 Operator 0:  Orbitals   0...  4  to   5... 72
 Operator 1:  Orbitals   0...  3  to   4... 72
Variables per perturbation     ... 616
DFT calculation                         ... on
XC functional terms                     ... off
Hybrid DFT                              ... on
   Exchange mixing (SCF)                ...  0.200
   Exchange mixing (CP-SCF)             ...  0.200
   GGA exch. scaling(SCF)               ...  0.720
   GGA exch. scaling (CP-SCF)           ...  0.720
   GGA corr. scaling (SCF)              ...  0.810
   GGA corr. scaling (CP-SCF)           ...  0.810

CP-SCF GRID
-----------

General Integration Accuracy     IntAcc      ... 3.467
Radial Grid Type                 RadialGrid  ... OptM3 with GC (2021)
Angular Grid (max. ang.)         AngularGrid ... 1 (Lebedev-50)
Angular grid pruning method      GridPruning ... 4 (adaptive)
Weight generation scheme         WeightScheme... Becke
Basis function cutoff            BFCut       ... 1.0000e-10
Integration weight cutoff        WCut        ... 1.0000e-14
Angular grids for H and He will be reduced by one unit
Partially contracted basis set               ... off
Rotationally invariant grid construction     ... off

Total number of grid points                  ...     2338
Total number of batches                      ...       38
Average number of points per batch           ...       61
Average number of grid points per atom       ...      584

CP-SCF GRIDX
------------

General Integration Accuracy     IntAcc      ... 3.067
Radial Grid Type                 RadialGrid  ... OptM3 with GC (2021)
Angular Grid (max. ang.)         AngularGrid ... 1 (Lebedev-50)
Angular grid pruning method      GridPruning ... 4 (adaptive)
Weight generation scheme         WeightScheme... Becke
Basis function cutoff            BFCut       ... 1.0000e-10
Integration weight cutoff        WCut        ... 1.0000e-14
Angular grids for H and He will be reduced by one unit
Partially contracted basis set               ... on
Rotationally invariant grid construction     ... off

Total number of grid points                  ...     1072
Total number of batches                      ...       20
Average number of points per batch           ...       53
Average number of grid points per atom       ...      268

Memory available               ... 967.7 MB
Memory needed per perturbation ...   0.4 MB
Perturbations treated per batch... 3
Number of batches              ... 1
     CP-SCF ITERATION   0:   7.3080e-02 (   0.1 sec   0/  3 done)
     CP-SCF ITERATION   1:   2.6709e-03 (   0.1 sec   0/  3 done)
     CP-SCF ITERATION   2:   1.7734e-04 (   0.1 sec   3/  3 done)
                    *** THE CP-SCF HAS CONVERGED ***

Forming final perturbed densities           ... done
Transforming perturbed density to AO basis  ... done

 Raw HFC matrix (all values in MHz): 
 -----------------------------------
               -62.6191              -5.1474              15.0146
                -5.1478             -24.7936              17.2681
                15.0146              17.2672             -93.9034

 A(FC)         -60.4545             -60.4545             -60.4545
 A(SD)          39.7833               3.8051             -43.5885
 A(ORB+DIA)      0.0148              -0.0006               0.0332    A(PC) =   0.0158
 A(ORB)          0.0092               0.0006               0.0315    A(PC) =   0.0138
 A(DIA)          0.0056              -0.0012               0.0017    A(PC) =   0.0020
             ----------           ----------           ----------
 A(Tot)        -20.6564             -56.6500            -104.0098    A(iso)=  -60.4387
 Orientation: 
  X           0.0402796            0.9333311           -0.3567499
  Y          -0.9743404           -0.0424401           -0.2210420
  Z          -0.2214459            0.3564994            0.9076728

Notes:  (1) The A matrix conforms to the "SAI" spin Hamiltonian convention.
        (2) Tensor is right-handed.

 -----------------------------------------------------------
 Nucleus   0C : A:ISTP=   13 I=  0.5 P=134.1903 MHz/au**3
                Q:ISTP=   13 I=  0.5 Q=  0.0000 barn     
 -----------------------------------------------------------
 Solving for nuclear perturbation:
Forming RHS of the CP-SCF equations         ... 
Calc. nucleus orbit integrals (SHARK)       ... done

------------------------------------------------------------------------------
                           ORCA CP-SCF CALCULATION
------------------------------------------------------------------------------

Input orbitals are from        ... /home/rwth0701/scratch/cs681498/orcajob__30556098-nSBk/512.gbw
Input Perturbation             ... /home/rwth0701/scratch/cs681498/orcajob__30556098-nSBk/512.pin.tmp
Wavefunction output            ... /home/rwth0701/scratch/cs681498/orcajob__30556098-nSBk/512.pout.tmp
Perturbation mode              ... Imaginary perturbation
Solver                         ... POPLE
Max. number of iterations      ... 64
Convergence tolerance          ... 1.000e-03
Integral handling              ... Direct
DFT GridXC                     ... 1
COSX GridX                     ... 1
COSX IntAccX                   ... 3.067
COSX Algorithm                 ... Auto
Number of perturbations        ... 3
Number of operators            ... 2
Orbital ranges used for CP-SCF:
 Operator 0:  Orbitals   0...  4  to   5... 72
 Operator 1:  Orbitals   0...  3  to   4... 72
Variables per perturbation     ... 616
DFT calculation                         ... on
XC functional terms                     ... off
Hybrid DFT                              ... on
   Exchange mixing (SCF)                ...  0.200
   Exchange mixing (CP-SCF)             ...  0.200
   GGA exch. scaling(SCF)               ...  0.720
   GGA exch. scaling (CP-SCF)           ...  0.720
   GGA corr. scaling (SCF)              ...  0.810
   GGA corr. scaling (CP-SCF)           ...  0.810

CP-SCF GRID
-----------

General Integration Accuracy     IntAcc      ... 3.467
Radial Grid Type                 RadialGrid  ... OptM3 with GC (2021)
Angular Grid (max. ang.)         AngularGrid ... 1 (Lebedev-50)
Angular grid pruning method      GridPruning ... 4 (adaptive)
Weight generation scheme         WeightScheme... Becke
Basis function cutoff            BFCut       ... 1.0000e-10
Integration weight cutoff        WCut        ... 1.0000e-14
Angular grids for H and He will be reduced by one unit
Partially contracted basis set               ... off
Rotationally invariant grid construction     ... off

Total number of grid points                  ...     2338
Total number of batches                      ...       38
Average number of points per batch           ...       61
Average number of grid points per atom       ...      584

CP-SCF GRIDX
------------

General Integration Accuracy     IntAcc      ... 3.067
Radial Grid Type                 RadialGrid  ... OptM3 with GC (2021)
Angular Grid (max. ang.)         AngularGrid ... 1 (Lebedev-50)
Angular grid pruning method      GridPruning ... 4 (adaptive)
Weight generation scheme         WeightScheme... Becke
Basis function cutoff            BFCut       ... 1.0000e-10
Integration weight cutoff        WCut        ... 1.0000e-14
Angular grids for H and He will be reduced by one unit
Partially contracted basis set               ... on
Rotationally invariant grid construction     ... off

Total number of grid points                  ...     1072
Total number of batches                      ...       20
Average number of points per batch           ...       53
Average number of grid points per atom       ...      268

Memory available               ... 967.6 MB
Memory needed per perturbation ...   0.4 MB
Perturbations treated per batch... 3
Number of batches              ... 1
     CP-SCF ITERATION   0:   1.0621e+00 (   0.1 sec   0/  3 done)
     CP-SCF ITERATION   1:   3.8890e-02 (   0.1 sec   0/  3 done)
     CP-SCF ITERATION   2:   2.6844e-03 (   0.1 sec   0/  3 done)
     CP-SCF ITERATION   3:   1.2433e-04 (   0.1 sec   3/  3 done)
                    *** THE CP-SCF HAS CONVERGED ***

Forming final perturbed densities           ... done
Transforming perturbed density to AO basis  ... done

 Raw HFC matrix (all values in MHz): 
 -----------------------------------
               212.7829             -27.2462              75.5578
               -27.2462               7.9131             -10.2706
                75.5578             -10.2706              31.6783

 A(FC)          84.2315              84.2315              84.2315
 A(SD)         -80.1347             -79.4050             159.5397
 A(ORB+DIA)     -0.1596              -0.1494              -0.0112    A(PC) =  -0.1067
 A(ORB)         -0.1601              -0.1498              -0.0111    A(PC) =  -0.1070
 A(DIA)          0.0004               0.0004              -0.0001    A(PC) =   0.0003
             ----------           ----------           ----------
 A(Tot)          3.9372               4.6771             243.7601    A(iso)=   84.1248
 Orientation: 
  X           0.1646506           -0.3199574           -0.9330153
  Y          -0.6906831           -0.7127030            0.1225202
  Z          -0.7041641            0.6242449           -0.3383361

Notes:  (1) The A matrix conforms to the "SAI" spin Hamiltonian convention.
        (2) Tensor is right-handed.


--------------------------------------------------------------------------------
----------------------------------------------------------------------------
                           ORCA EULER ANGLE PROGRAM
----------------------------------------------------------------------------

Only g-tensor available        -->  using g-tensor as reference tensor

Reference tensor               ...  g

g-tensor ordering              ...  |g_min> --> |gx>
                                    |g_mid> --> |gy>
                                    |g_max> --> |gz>

A- and EFG-tensor ordering     ...  the axes |Ax>, |Qx>, |Ay>, etc. are assigned
                                    such that the Euler rotation is minimal. You
                                    can find the respective eigenvalues as Ax,
                                    EFGx, Ay, etc. in the tables below.
                                    The relation of |Ax>, |Ay>,  etc. to Amin, Amid, etc.
                                    (as printed in the ORCA EPR/NMR CALCULATION Output)
                                    is obtained in the detailed printout.

Euler rotation around          ...  z - y - z
   First rotation              -->  by alpha around z
   Second rotation             -->  by beta around y'
   Third rotation              -->  by gamma around z''
   Positive / Negative angle   -->  clockwise / counterclockwise rotation

Plot EFG-tensors                    (-)
Plot HFC-tensors                    (-)
Detailed Printout                   (-)

-------------------------------------------------------------------------
          Euler rotation of hyperfine tensor to g-tensor
-------------------------------------------------------------------------

-------------------------------------------------------------------
 Atom  |   Alpha    Beta    Gamma   |   Ax       Ay       Az 
       |          [degrees]         |           [MHz]         
-------------------------------------------------------------------
  1H     -116.5     10.8    116.6     -62.05  -100.43   -24.55
  2H      -85.9     39.9     90.1     -56.82   -20.92  -104.64
  3H       86.4     18.0    -91.3     -56.65   -20.66  -104.01
  0C      -91.5     15.0     91.2     243.76     3.94     4.68
-------------------------------------------------------------------


Maximum memory used throughout the entire EPRNMR-calculation: 67.6 MB

Timings for individual modules:

Sum of individual times         ...       18.440 sec (=   0.307 min)
GTO integral calculation        ...        3.136 sec (=   0.052 min)  17.0 %
Spin-Orbit-Coupling Matrices    ...        2.247 sec (=   0.037 min)  12.2 %
SCF iterations                  ...        6.461 sec (=   0.108 min)  35.0 %
EPR/NMR calculation             ...        6.596 sec (=   0.110 min)  35.8 %
                             ****ORCA TERMINATED NORMALLY****
TOTAL RUN TIME: 0 days 0 hours 0 minutes 21 seconds 17 msec
