Job execution start: Mon Oct 24 17:41:01 CEST 2022
Shared library path: /home/cs681498/orca:/opt/MPI/openmpi-4.1.1/linux/gcc_4.8.5/lib:/opt/MPI/openmpi-4.1.1/linux/gcc_4.8.5/lib/lib32
Slurm Job ID is: 30556147
Slurm Job name is: 2626
ncm0837

                                 *****************
                                 * O   R   C   A *
                                 *****************

                                            #,                                       
                                            ###                                      
                                            ####                                     
                                            #####                                    
                                            ######                                   
                                           ########,                                 
                                     ,,################,,,,,                         
                               ,,#################################,,                 
                          ,,##########################################,,             
                       ,#########################################, ''#####,          
                    ,#############################################,,   '####,        
                  ,##################################################,,,,####,       
                ,###########''''           ''''###############################       
              ,#####''   ,,,,##########,,,,          '''####'''          '####       
            ,##' ,,,,###########################,,,                        '##       
           ' ,,###''''                  '''############,,,                           
         ,,##''                                '''############,,,,        ,,,,,,###''
      ,#''                                            '''#######################'''  
     '                                                          ''''####''''         
             ,#######,   #######,   ,#######,      ##                                
            ,#'     '#,  ##    ##  ,#'     '#,    #''#        ######   ,####,        
            ##       ##  ##   ,#'  ##            #'  '#       #        #'  '#        
            ##       ##  #######   ##           ,######,      #####,   #    #        
            '#,     ,#'  ##    ##  '#,     ,#' ,#      #,         ##   #,  ,#        
             '#######'   ##     ##  '#######'  #'      '#     #####' # '####'        



                  #######################################################
                  #                        -***-                        #
                  #          Department of theory and spectroscopy      #
                  #    Directorship and core code : Frank Neese         #
                  #        Max Planck Institute fuer Kohlenforschung    #
                  #                Kaiser Wilhelm Platz 1               #
                  #                 D-45470 Muelheim/Ruhr               #
                  #                      Germany                        #
                  #                                                     #
                  #                  All rights reserved                #
                  #                        -***-                        #
                  #######################################################


                         Program Version 5.0.3 -  RELEASE  -


 With contributions from (in alphabetic order):
   Daniel Aravena         : Magnetic Suceptibility
   Michael Atanasov       : Ab Initio Ligand Field Theory (pilot matlab implementation)
   Alexander A. Auer      : GIAO ZORA, VPT2 properties, NMR spectrum
   Ute Becker             : Parallelization
   Giovanni Bistoni       : ED, misc. LED, open-shell LED, HFLD
   Martin Brehm           : Molecular dynamics
   Dmytro Bykov           : SCF Hessian
   Vijay G. Chilkuri      : MRCI spin determinant printing, contributions to CSF-ICE
   Dipayan Datta          : RHF DLPNO-CCSD density
   Achintya Kumar Dutta   : EOM-CC, STEOM-CC
   Dmitry Ganyushin       : Spin-Orbit,Spin-Spin,Magnetic field MRCI
   Miquel Garcia          : C-PCM and meta-GGA Hessian, CC/C-PCM, Gaussian charge scheme
   Yang Guo               : DLPNO-NEVPT2, F12-NEVPT2, CIM, IAO-localization
   Andreas Hansen         : Spin unrestricted coupled pair/coupled cluster methods
   Benjamin Helmich-Paris : MC-RPA, TRAH-SCF, COSX integrals
   Lee Huntington         : MR-EOM, pCC
   Robert Izsak           : Overlap fitted RIJCOSX, COSX-SCS-MP3, EOM
   Marcus Kettner         : VPT2
   Christian Kollmar      : KDIIS, OOCD, Brueckner-CCSD(T), CCSD density, CASPT2, CASPT2-K
   Simone Kossmann        : Meta GGA functionals, TD-DFT gradient, OOMP2, MP2 Hessian
   Martin Krupicka        : Initial AUTO-CI
   Lucas Lang             : DCDCAS
   Marvin Lechner         : AUTO-CI (C++ implementation), FIC-MRCC
   Dagmar Lenk            : GEPOL surface, SMD
   Dimitrios Liakos       : Extrapolation schemes; Compound Job, initial MDCI parallelization
   Dimitrios Manganas     : Further ROCIS development; embedding schemes
   Dimitrios Pantazis     : SARC Basis sets
   Anastasios Papadopoulos: AUTO-CI, single reference methods and gradients
   Taras Petrenko         : DFT Hessian,TD-DFT gradient, ASA, ECA, R-Raman, ABS, FL, XAS/XES, NRVS
   Peter Pinski           : DLPNO-MP2, DLPNO-MP2 Gradient
   Christoph Reimann      : Effective Core Potentials
   Marius Retegan         : Local ZFS, SOC
   Christoph Riplinger    : Optimizer, TS searches, QM/MM, DLPNO-CCSD(T), (RO)-DLPNO pert. Triples
   Tobias Risthaus        : Range-separated hybrids, TD-DFT gradient, RPA, STAB
   Michael Roemelt        : Original ROCIS implementation
   Masaaki Saitow         : Open-shell DLPNO-CCSD energy and density
   Barbara Sandhoefer     : DKH picture change effects
   Avijit Sen             : IP-ROCIS
   Kantharuban Sivalingam : CASSCF convergence, NEVPT2, FIC-MRCI
   Bernardo de Souza      : ESD, SOC TD-DFT
   Georgi Stoychev        : AutoAux, RI-MP2 NMR, DLPNO-MP2 response
   Willem Van den Heuvel  : Paramagnetic NMR
   Boris Wezisla          : Elementary symmetry handling
   Frank Wennmohs         : Technical directorship


 We gratefully acknowledge several colleagues who have allowed us to
 interface, adapt or use parts of their codes:
   Stefan Grimme, W. Hujo, H. Kruse, P. Pracht,  : VdW corrections, initial TS optimization,
                  C. Bannwarth, S. Ehlert          DFT functionals, gCP, sTDA/sTD-DF
   Ed Valeev, F. Pavosevic, A. Kumar             : LibInt (2-el integral package), F12 methods
   Garnet Chan, S. Sharma, J. Yang, R. Olivares  : DMRG
   Ulf Ekstrom                                   : XCFun DFT Library
   Mihaly Kallay                                 : mrcc  (arbitrary order and MRCC methods)
   Jiri Pittner, Ondrej Demel                    : Mk-CCSD
   Frank Weinhold                                : gennbo (NPA and NBO analysis)
   Christopher J. Cramer and Donald G. Truhlar   : smd solvation model
   Lars Goerigk                                  : TD-DFT with DH, B97 family of functionals
   V. Asgeirsson, H. Jonsson                     : NEB implementation
   FAccTs GmbH                                   : IRC, NEB, NEB-TS, DLPNO-Multilevel, CI-OPT
                                                   MM, QMMM, 2- and 3-layer-ONIOM, Crystal-QMMM,
                                                   LR-CPCM, SF, NACMEs, symmetry and pop. for TD-DFT,
                                                   nearIR, NL-DFT gradient (VV10), updates on ESD,
                                                   ML-optimized integration grids
   S Lehtola, MJT Oliveira, MAL Marques          : LibXC Library
   Liviu Ungur et al                             : ANISO software


 Your calculation uses the libint2 library for the computation of 2-el integrals
 For citations please refer to: http://libint.valeyev.net

 Your ORCA version has been built with support for libXC version: 5.1.0
 For citations please refer to: https://tddft.org/programs/libxc/

 This ORCA versions uses:
   CBLAS   interface :  Fast vector & matrix operations
   LAPACKE interface :  Fast linear algebra routines
   SCALAPACK package :  Parallel linear algebra routines
   Shared memory     :  Shared parallel matrices
   BLAS/LAPACK       :  OpenBLAS 0.3.15  USE64BITINT DYNAMIC_ARCH NO_AFFINITY SkylakeX SINGLE_THREADED
        Core in use  :  SkylakeX
   Copyright (c) 2011-2014, The OpenBLAS Project


================================================================================

----- Orbital basis set information -----
Your calculation utilizes the basis: EPR-III
   V. Barone, in Recent Advances in Density Functional Methods, Part 1 (ed. D. P. Chong), World Scientific, Singapore, 1995, p. 287.
   N. Rega, M. Cossi and V. Barone, J. Chem. Phys. 105, 11060 (1996).

----- AuxJ basis set information -----
Your calculation utilizes the AutoAux generation procedure.
  G. L. Stoychev, A. A. Auer, F. Neese, J. Chem. Theory Comput. 13, 554 (2017)

----- AuxC basis set information -----
Your calculation utilizes the AutoAux generation procedure.
  G. L. Stoychev, A. A. Auer, F. Neese, J. Chem. Theory Comput. 13, 554 (2017)

----- AuxJK basis set information -----
Your calculation utilizes the AutoAux generation procedure.
  G. L. Stoychev, A. A. Auer, F. Neese, J. Chem. Theory Comput. 13, 554 (2017)

================================================================================
                                        WARNINGS
                       Please study these warnings very carefully!
================================================================================


WARNING: your system is open-shell and RHF/RKS was chosen
  ===> : WILL SWITCH to UHF/UKS


INFO   : the flag for use of the SHARK integral package has been found!

================================================================================
                                       INPUT FILE
================================================================================
NAME = /home/rwth0701/scratch/cs681498/orcajob__30556147-POEz/2626.inp
|  1> !B3LYP EPR-III Autoaux
|  2> !PAL4
|  3> 
|  4> * xyz 0 2
|  5>  C      3.1205648936    -11.3177905377     -9.5821882985
|  6>  H      2.4737374591    -12.1599385190     -9.8519055708
|  7>  H      3.8711880624    -11.0210041610    -10.2670062238
|  8>  H      3.1157356465    -10.8477752158     -8.6233140388
|  9> *
| 10> 
| 11> %EPRNMR
| 12>         GTENSOR   TRUE
| 13>         NUCLEI    = ALL H {AISO, ADIP, AORB}
| 14>         NUCLEI    = ALL C {AISO, ADIP, AORB}
| 15> END
| 16> 
| 17> 
| 18>                          ****END OF INPUT****
================================================================================

                       ****************************
                       * Single Point Calculation *
                       ****************************

---------------------------------
CARTESIAN COORDINATES (ANGSTROEM)
---------------------------------
  C      3.120565  -11.317791   -9.582188
  H      2.473737  -12.159939   -9.851906
  H      3.871188  -11.021004  -10.267006
  H      3.115736  -10.847775   -8.623314

----------------------------
CARTESIAN COORDINATES (A.U.)
----------------------------
  NO LB      ZA    FRAG     MASS         X           Y           Z
   0 C     6.0000    0    12.011    5.897013  -21.387525  -18.107712
   1 H     1.0000    0     1.008    4.674686  -22.978954  -18.617403
   2 H     1.0000    0     1.008    7.315485  -20.826680  -19.401830
   3 H     1.0000    0     1.008    5.887887  -20.499324  -16.295702

--------------------------------
INTERNAL COORDINATES (ANGSTROEM)
--------------------------------
 C      0   0   0     0.000000000000     0.00000000     0.00000000
 H      1   0   0     1.095603194321     0.00000000     0.00000000
 H      1   2   0     1.058533365438   118.35269901     0.00000000
 H      1   2   3     1.067884624088   123.82771387   187.33151591

---------------------------
INTERNAL COORDINATES (A.U.)
---------------------------
 C      0   0   0     0.000000000000     0.00000000     0.00000000
 H      1   0   0     2.070389988716     0.00000000     0.00000000
 H      1   2   0     2.000338164296   118.35269901     0.00000000
 H      1   2   3     2.018009482152   123.82771387   187.33151591

---------------------
BASIS SET INFORMATION
---------------------
There are 2 groups of distinct atoms

 Group   1 Type C   : 12s8p2d1f contracted to 8s5p2d1f pattern {51111111/41111/11/1}
 Group   2 Type H   : 7s2p contracted to 5s2p pattern {31111/11}

Atom   0C    basis set group =>   1
Atom   1H    basis set group =>   2
Atom   2H    basis set group =>   2
Atom   3H    basis set group =>   2
---------------------------------
AUXILIARY/J BASIS SET INFORMATION
---------------------------------
There are 2 groups of distinct atoms

 Group   1 Type C   : 20s17p16d8f3g contracted to 20s17p16d8f3g pattern {11111111111111111111/11111111111111111/1111111111111111/11111111/111}
 Group   2 Type H   : 17s7p3d contracted to 17s7p3d pattern {11111111111111111/1111111/111}

Atom   0C    basis set group =>   1
Atom   1H    basis set group =>   2
Atom   2H    basis set group =>   2
Atom   3H    basis set group =>   2
---------------------------------
AUXILIARY/C BASIS SET INFORMATION
---------------------------------
There are 2 groups of distinct atoms

 Group   1 Type C   : 20s17p16d8f3g contracted to 20s17p16d8f3g pattern {11111111111111111111/11111111111111111/1111111111111111/11111111/111}
 Group   2 Type H   : 17s7p3d contracted to 17s7p3d pattern {11111111111111111/1111111/111}

Atom   0C    basis set group =>   1
Atom   1H    basis set group =>   2
Atom   2H    basis set group =>   2
Atom   3H    basis set group =>   2
----------------------------------
AUXILIARY/JK BASIS SET INFORMATION
----------------------------------
There are 2 groups of distinct atoms

 Group   1 Type C   : 20s17p16d8f3g contracted to 20s17p16d8f3g pattern {11111111111111111111/11111111111111111/1111111111111111/11111111/111}
 Group   2 Type H   : 17s7p3d contracted to 17s7p3d pattern {11111111111111111/1111111/111}

Atom   0C    basis set group =>   1
Atom   1H    basis set group =>   2
Atom   2H    basis set group =>   2
Atom   3H    basis set group =>   2


           ************************************************************
           *        Program running with 4 parallel MPI-processes     *
           *              working on a common directory               *
           ************************************************************
------------------------------------------------------------------------------
                           ORCA GTO INTEGRAL CALCULATION
                           -- RI-GTO INTEGRALS CHOSEN --
------------------------------------------------------------------------------
------------------------------------------------------------------------------
                   ___                                                        
                  /   \      - P O W E R E D   B Y -                         
                 /     \                                                     
                 |  |  |   _    _      __       _____    __    __             
                 |  |  |  | |  | |    /  \     |  _  \  |  |  /  |          
                  \  \/   | |  | |   /    \    | | | |  |  | /  /          
                 / \  \   | |__| |  /  /\  \   | |_| |  |  |/  /          
                |  |  |   |  __  | /  /__\  \  |    /   |      \           
                |  |  |   | |  | | |   __   |  |    \   |  |\   \          
                \     /   | |  | | |  |  |  |  | |\  \  |  | \   \       
                 \___/    |_|  |_| |__|  |__|  |_| \__\ |__|  \__/        
                                                                              
                      - O R C A' S   B I G   F R I E N D -                    
                                      &                                       
                       - I N T E G R A L  F E E D E R -                       
                                                                              
 v1 FN, 2020, v2 2021                                                         
------------------------------------------------------------------------------


Reading SHARK input file /home/rwth0701/scratch/cs681498/orcajob__30556147-POEz/2626.SHARKINP.tmp ... ok
----------------------
SHARK INTEGRAL PACKAGE
----------------------

Number of atoms                             ...      4
Number of basis functions                   ...     73
Number of shells                            ...     37
Maximum angular momentum                    ...      3
Integral batch strategy                     ... SHARK/LIBINT Hybrid
RI-J (if used) integral strategy            ... SPLIT-RIJ (Revised 2003 algorithm where possible)
Printlevel                                  ...      1
Contraction scheme used                     ... SEGMENTED contraction
Coulomb Range Separation                    ... NOT USED
Exchange Range Separation                   ... NOT USED
Finite Nucleus Model                        ... NOT USED
Auxiliary Coulomb fitting basis             ... AVAILABLE
   # of basis functions in Aux-J            ...    393
   # of shells in Aux-J                     ...    145
   Maximum angular momentum in Aux-J        ...      4
Auxiliary J/K fitting basis                 ... AVAILABLE
   # of basis functions in Aux-JK           ...    393
   # of shells in Aux-JK                    ...    145
   Maximum angular momentum in Aux-JK       ...      4
Auxiliary Correlation fitting basis         ... AVAILABLE
   # of basis functions in Aux-C            ...    393
   # of shells in Aux-C                     ...    145
   Maximum angular momentum in Aux-C        ...      4
Auxiliary 'external' fitting basis          ... NOT available
Integral threshold                          ...     1.000000e-10
Primitive cut-off                           ...     1.000000e-11
Primitive pair pre-selection threshold      ...     1.000000e-11

Calculating pre-screening integrals         ... done (  0.0 sec) Dimension = 37
Organizing shell pair data                  ... done (  0.1 sec)
Shell pair information
Total number of shell pairs                 ...       703
Shell pairs after pre-screening             ...       688
Total number of primitive shell pairs       ...      1300
Primitive shell pairs kept                  ...      1183
          la=0 lb=0:    261 shell pairs
          la=1 lb=0:    253 shell pairs
          la=1 lb=1:     66 shell pairs
          la=2 lb=0:     46 shell pairs
          la=2 lb=1:     22 shell pairs
          la=2 lb=2:      3 shell pairs
          la=3 lb=0:     23 shell pairs
          la=3 lb=1:     11 shell pairs
          la=3 lb=2:      2 shell pairs
          la=3 lb=3:      1 shell pairs

Calculating one electron integrals          ... done (  0.0 sec)
Calculating RI/J V-Matrix + Cholesky decomp.... done (  0.2 sec)
Calculating RI/JK V-Matrix + Cholesky decomp... done (  0.2 sec)
Calculating RI/C V-Matrix + Cholesky decomp.... done (  0.2 sec)
Calculating Nuclear repulsion               ... done (  0.0 sec) ENN=      9.725203186575 Eh

SHARK setup successfully completed in   1.2 seconds

Maximum memory used throughout the entire GTOINT-calculation: 13.7 MB


           ************************************************************
           *        Program running with 4 parallel MPI-processes     *
           *              working on a common directory               *
           ************************************************************
-------------------------------------------------------------------------------
                                 ORCA SCF
-------------------------------------------------------------------------------

------------
SCF SETTINGS
------------
Hamiltonian:
 Density Functional     Method          .... DFT(GTOs)
 Exchange Functional    Exchange        .... B88
   X-Alpha parameter    XAlpha          ....  0.666667
   Becke's b parameter  XBeta           ....  0.004200
 Correlation Functional Correlation     .... LYP
 LDA part of GGA corr.  LDAOpt          .... VWN-5
 Gradients option       PostSCFGGA      .... off
 Hybrid DFT is turned on
   Fraction HF Exchange ScalHFX         ....  0.200000
   Scaling of DF-GGA-X  ScalDFX         ....  0.720000
   Scaling of DF-GGA-C  ScalDFC         ....  0.810000
   Scaling of DF-LDA-C  ScalLDAC        ....  1.000000
   Perturbative correction              ....  0.000000
   Density functional embedding theory  .... OFF
   NL short-range parameter             ....  4.800000
 RI-approximation to the Coulomb term is turned on
   Number of AuxJ basis functions       .... 393
   RIJ-COSX (HFX calculated with COS-X)).... on


General Settings:
 Integral files         IntName         .... /home/rwth0701/scratch/cs681498/orcajob__30556147-POEz/2626
 Hartree-Fock type      HFTyp           .... UHF
 Total Charge           Charge          ....    0
 Multiplicity           Mult            ....    2
 Number of Electrons    NEL             ....    9
 Basis Dimension        Dim             ....   73
 Nuclear Repulsion      ENuc            ....      9.7252031866 Eh

Convergence Acceleration:
 DIIS                   CNVDIIS         .... on
   Start iteration      DIISMaxIt       ....    12
   Startup error        DIISStart       ....  0.200000
   # of expansion vecs  DIISMaxEq       ....     5
   Bias factor          DIISBfac        ....   1.050
   Max. coefficient     DIISMaxC        ....  10.000
 Trust-Rad. Augm. Hess. CNVTRAH         .... auto
   Auto Start mean grad. ratio tolernc. ....  1.125000
   Auto Start start iteration           ....    20
   Auto Start num. interpolation iter.  ....    10
   Max. Number of Micro iterations      ....    16
   Max. Number of Macro iterations      .... Maxiter - #DIIS iter
   Number of Davidson start vectors     ....     2
   Converg. threshold I  (grad. norm)   ....   5.000e-05
   Converg. threshold II (energy diff.) ....   1.000e-06
   Grad. Scal. Fac. for Micro threshold ....   0.100
   Minimum threshold for Micro iter.    ....   0.010
   NR start threshold (gradient norm)   ....   0.001
   Initial trust radius                 ....   0.400
   Minimum AH scaling param. (alpha)    ....   1.000
   Maximum AH scaling param. (alpha)    .... 1000.000
   Orbital update algorithm             .... Taylor
   White noise on init. David. guess    .... on
   Maximum white noise                  ....   0.010
   Quad. conv. algorithm                .... NR
 SOSCF                  CNVSOSCF        .... off
 Level Shifting         CNVShift        .... on
   Level shift para.    LevelShift      ....    0.2500
   Turn off err/grad.   ShiftErr        ....    0.0010
 Zerner damping         CNVZerner       .... off
 Static damping         CNVDamp         .... on
   Fraction old density DampFac         ....    0.7000
   Max. Damping (<1)    DampMax         ....    0.9800
   Min. Damping (>=0)   DampMin         ....    0.0000
   Turn off err/grad.   DampErr         ....    0.1000
 Fernandez-Rico         CNVRico         .... off

SCF Procedure:
 Maximum # iterations   MaxIter         ....   125
 SCF integral mode      SCFMode         .... Direct
   Integral package                     .... SHARK and LIBINT hybrid scheme
 Reset frequency        DirectResetFreq ....    20
 Integral Threshold     Thresh          ....  1.000e-10 Eh
 Primitive CutOff       TCut            ....  1.000e-11 Eh

Convergence Tolerance:
 Convergence Check Mode ConvCheckMode   .... Total+1el-Energy
 Convergence forced     ConvForced      .... 0
 Energy Change          TolE            ....  1.000e-06 Eh
 1-El. energy change                    ....  1.000e-03 Eh
 DIIS Error             TolErr          ....  1.000e-06


Diagonalization of the overlap matrix:
Smallest eigenvalue                        ... 1.563e-03
Time for diagonalization                   ...    0.001 sec
Threshold for overlap eigenvalues          ... 1.000e-08
Number of eigenvalues below threshold      ... 0
Time for construction of square roots      ...    0.009 sec
Total time needed                          ...    0.011 sec

Time for model grid setup =    0.076 sec

------------------------------
INITIAL GUESS: MODEL POTENTIAL
------------------------------
Loading Hartree-Fock densities                     ... done
Calculating cut-offs                               ... done
Initializing the effective Hamiltonian             ... done
Setting up the integral package (SHARK)            ... done
Starting the Coulomb interaction                   ... done (   0.0 sec)
Reading the grid                                   ... done
Mapping shells                                     ... done
Starting the XC term evaluation                    ... done (   0.0 sec)
  promolecular density results
     # of electrons  =      8.998675984
     EX              =     -5.973553442
     EC              =     -0.260569139
     EX+EC           =     -6.234122581
Transforming the Hamiltonian                       ... done (   0.0 sec)
Diagonalizing the Hamiltonian                      ... done (   0.0 sec)
Back transforming the eigenvectors                 ... done (   0.0 sec)
Now organizing SCF variables                       ... done
                      ------------------
                      INITIAL GUESS DONE (   0.1 sec)
                      ------------------
-------------------
DFT GRID GENERATION
-------------------

General Integration Accuracy     IntAcc      ... 4.388
Radial Grid Type                 RadialGrid  ... OptM3 with GC (2021)
Angular Grid (max. ang.)         AngularGrid ... 4 (Lebedev-302)
Angular grid pruning method      GridPruning ... 4 (adaptive)
Weight generation scheme         WeightScheme... Becke
Basis function cutoff            BFCut       ... 1.0000e-10
Integration weight cutoff        WCut        ... 1.0000e-14
Angular grids for H and He will be reduced by one unit
Partially contracted basis set               ... off
Rotationally invariant grid construction     ... off

Total number of grid points                  ...    17063
Total number of batches                      ...      270
Average number of points per batch           ...       63
Average number of grid points per atom       ...     4266
Time for grid setup =    0.285 sec

--------------------
COSX GRID GENERATION
--------------------

GRIDX 1
-------
General Integration Accuracy     IntAcc      ... 3.816
Radial Grid Type                 RadialGrid  ... OptM3 with GC (2021)
Angular Grid (max. ang.)         AngularGrid ... 1 (Lebedev-50)
Angular grid pruning method      GridPruning ... 4 (adaptive)
Weight generation scheme         WeightScheme... Becke
Basis function cutoff            BFCut       ... 1.0000e-10
Integration weight cutoff        WCut        ... 1.0000e-14
Angular grids for H and He will be reduced by one unit
Partially contracted basis set               ... on
Rotationally invariant grid construction     ... off

Total number of grid points                  ...     2149
Total number of batches                      ...       35
Average number of points per batch           ...       61
Average number of grid points per atom       ...      537
UseSFitting                                  ... on

GRIDX 2
-------
General Integration Accuracy     IntAcc      ... 4.020
Radial Grid Type                 RadialGrid  ... OptM3 with GC (2021)
Angular Grid (max. ang.)         AngularGrid ... 2 (Lebedev-110)
Angular grid pruning method      GridPruning ... 4 (adaptive)
Weight generation scheme         WeightScheme... Becke
Basis function cutoff            BFCut       ... 1.0000e-10
Integration weight cutoff        WCut        ... 1.0000e-14
Angular grids for H and He will be reduced by one unit
Partially contracted basis set               ... on
Rotationally invariant grid construction     ... off

Total number of grid points                  ...     5047
Total number of batches                      ...       82
Average number of points per batch           ...       61
Average number of grid points per atom       ...     1262
UseSFitting                                  ... on

GRIDX 3
-------
General Integration Accuracy     IntAcc      ... 4.338
Radial Grid Type                 RadialGrid  ... OptM3 with GC (2021)
Angular Grid (max. ang.)         AngularGrid ... 3 (Lebedev-194)
Angular grid pruning method      GridPruning ... 4 (adaptive)
Weight generation scheme         WeightScheme... Becke
Basis function cutoff            BFCut       ... 1.0000e-10
Integration weight cutoff        WCut        ... 1.0000e-14
Angular grids for H and He will be reduced by one unit
Partially contracted basis set               ... on
Rotationally invariant grid construction     ... off

Total number of grid points                  ...    11743
Total number of batches                      ...      185
Average number of points per batch           ...       63
Average number of grid points per atom       ...     2936
UseSFitting                                  ... on

Time for X-Grid setup             =    0.483 sec

--------------
SCF ITERATIONS
--------------
ITER       Energy         Delta-E        Max-DP      RMS-DP      [F,P]     Damp
               ***  Starting incremental Fock matrix formation  ***
  0    -39.7845220384   0.000000000000 0.01558158  0.00050075  0.0902155 0.7000
  1    -39.8038582410  -0.019336202659 0.00976487  0.00037307  0.0462050 0.7000
                               ***Turning on DIIS***
  2    -39.8124686968  -0.008610455715 0.01584523  0.00065285  0.0181210 0.0000
  3    -39.8242530652  -0.011784368462 0.00691552  0.00027885  0.0263450 0.0000
  4    -39.8277927456  -0.003539680351 0.00253700  0.00007723  0.0047536 0.0000
  5    -39.8279366172  -0.000143871581 0.00089477  0.00003163  0.0013131 0.0000
  6    -39.8279536797  -0.000017062536 0.00044961  0.00002416  0.0004689 0.0000
               *** Restarting incremental Fock matrix formation ***
                                   *** Resetting DIIS ***
                 **** Energy Check signals convergence ****

               *****************************************************
               *                     SUCCESS                       *
               *           SCF CONVERGED AFTER   7 CYCLES          *
               *****************************************************

Old exchange energy                            =     -1.242753783 Eh
New exchange energy                            =     -1.242753465 Eh
Exchange energy change after final integration =      0.000000318 Eh
Total energy after final integration           =    -39.827952896 Eh
Final COS-X integration done in                =     0.178 sec

----------------
TOTAL SCF ENERGY
----------------

Total Energy       :          -39.82795290 Eh           -1083.77370 eV

Components:
Nuclear Repulsion  :            9.72520319 Eh             264.63623 eV
Electronic Energy  :          -49.55315608 Eh           -1348.40993 eV
One Electron Energy:          -71.74767963 Eh           -1952.35362 eV
Two Electron Energy:           22.19452355 Eh             603.94369 eV
Max COSX asymmetry :            0.00000005 Eh               0.00000 eV

Virial components:
Potential Energy   :          -79.47759137 Eh           -2162.69521 eV
Kinetic Energy     :           39.64963848 Eh            1078.92151 eV
Virial Ratio       :            2.00449725


DFT components:
N(Alpha)           :        4.999999505393 electrons
N(Beta)            :        3.999999833421 electrons
N(Total)           :        8.999999338814 electrons
E(X)               :       -4.918053989864 Eh       
E(C)               :       -0.309970278987 Eh       
E(XC)              :       -5.228024268851 Eh       
DFET-embed. en.    :        0.000000000000 Eh       

---------------
SCF CONVERGENCE
---------------

  Last Energy change         ...    4.6598e-07  Tolerance :   1.0000e-06
  Last MAX-Density change    ...    0.0000e+00  Tolerance :   1.0000e-05
  Last RMS-Density change    ...    0.0000e+00  Tolerance :   1.0000e-06
  Last DIIS Error            ...    7.3740e-05  Tolerance :   1.0000e-06

             **** THE GBW FILE WAS UPDATED (/home/rwth0701/scratch/cs681498/orcajob__30556147-POEz/2626.gbw) ****
             **** DENSITY /home/rwth0701/scratch/cs681498/orcajob__30556147-POEz/2626.scfp WAS UPDATED ****
             **** ENERGY FILE WAS UPDATED (/home/rwth0701/scratch/cs681498/orcajob__30556147-POEz/2626.en.tmp) ****
----------------------
UHF SPIN CONTAMINATION
----------------------

Warning: in a DFT calculation there is little theoretical justification to 
         calculate <S**2> as in Hartree-Fock theory. We will do it anyways
         but you should keep in mind that the values have only limited relevance

Expectation value of <S**2>     :     0.753523
Ideal value S*(S+1) for S=0.5   :     0.750000
Deviation                       :     0.003523

             **** THE GBW FILE WAS UPDATED (/home/rwth0701/scratch/cs681498/orcajob__30556147-POEz/2626.gbw) ****
             **** DENSITY /home/rwth0701/scratch/cs681498/orcajob__30556147-POEz/2626.scfp WAS UPDATED ****
----------------
ORBITAL ENERGIES
----------------
                 SPIN UP ORBITALS
  NO   OCC          E(Eh)            E(eV) 
   0   1.0000     -10.182554      -277.0814 
   1   1.0000      -0.689496       -18.7621 
   2   1.0000      -0.427846       -11.6423 
   3   1.0000      -0.420341       -11.4381 
   4   1.0000      -0.235065        -6.3964 
   5   0.0000       0.001126         0.0306 
   6   0.0000       0.036224         0.9857 
   7   0.0000       0.037345         1.0162 
   8   0.0000       0.047420         1.2904 
   9   0.0000       0.089037         2.4228 
  10   0.0000       0.094659         2.5758 
  11   0.0000       0.096473         2.6252 
  12   0.0000       0.221568         6.0292 
  13   0.0000       0.224770         6.1163 
  14   0.0000       0.247516         6.7352 
  15   0.0000       0.276405         7.5214 
  16   0.0000       0.305632         8.3167 
  17   0.0000       0.312444         8.5020 
  18   0.0000       0.346338         9.4243 
  19   0.0000       0.554401        15.0860 
  20   0.0000       0.564461        15.3598 
  21   0.0000       0.740234        20.1428 
  22   0.0000       0.747153        20.3311 
  23   0.0000       0.764590        20.8056 
  24   0.0000       0.839643        22.8479 
  25   0.0000       0.888084        24.1660 
  26   0.0000       0.899682        24.4816 
  27   0.0000       0.939499        25.5651 
  28   0.0000       0.970912        26.4199 
  29   0.0000       1.061927        28.8965 
  30   0.0000       1.078085        29.3362 
  31   0.0000       1.094760        29.7899 
  32   0.0000       1.171263        31.8717 
  33   0.0000       1.172624        31.9087 
  34   0.0000       1.472475        40.0681 
  35   0.0000       1.484562        40.3970 
  36   0.0000       1.504109        40.9289 
  37   0.0000       1.713117        46.6163 
  38   0.0000       1.733780        47.1786 
  39   0.0000       1.745706        47.5031 
  40   0.0000       2.720081        74.0172 
  41   0.0000       2.724168        74.1284 
  42   0.0000       2.891925        78.6933 
  43   0.0000       2.906281        79.0839 
  44   0.0000       2.935167        79.8700 
  45   0.0000       2.943201        80.0886 
  46   0.0000       2.993296        81.4517 
  47   0.0000       3.162249        86.0492 
  48   0.0000       3.175489        86.4095 
  49   0.0000       3.245263        88.3081 
  50   0.0000       3.248018        88.3831 
  51   0.0000       3.709957       100.9531 
  52   0.0000       3.770798       102.6086 
  53   0.0000       3.835772       104.3767 
  54   0.0000       3.924448       106.7897 
  55   0.0000       3.991171       108.6053 
  56   0.0000       4.065732       110.6342 
  57   0.0000       4.147281       112.8533 
  58   0.0000       4.156020       113.0911 
  59   0.0000       4.158052       113.1463 
  60   0.0000       4.697317       127.8205 
  61   0.0000       4.991322       135.8208 
  62   0.0000       5.366091       146.0188 
  63   0.0000       5.435615       147.9106 
  64   0.0000       5.553506       151.1186 
  65   0.0000       6.119694       166.5253 
  66   0.0000       6.147495       167.2818 
  67   0.0000       7.776806       211.6176 
  68   0.0000      29.093266       791.6680 
  69   0.0000      37.146191      1010.7992 
  70   0.0000      37.218333      1012.7623 
  71   0.0000      37.220692      1012.8265 
  72   0.0000     133.555179      3634.2212 

                 SPIN DOWN ORBITALS
  NO   OCC          E(Eh)            E(eV) 
   0   1.0000     -10.168194      -276.6906 
   1   1.0000      -0.650251       -17.6942 
   2   1.0000      -0.418462       -11.3869 
   3   1.0000      -0.410663       -11.1747 
   4   0.0000      -0.077662        -2.1133 
   5   0.0000       0.004186         0.1139 
   6   0.0000       0.035823         0.9748 
   7   0.0000       0.036904         1.0042 
   8   0.0000       0.060642         1.6502 
   9   0.0000       0.091104         2.4791 
  10   0.0000       0.094770         2.5788 
  11   0.0000       0.100725         2.7409 
  12   0.0000       0.222683         6.0595 
  13   0.0000       0.225951         6.1484 
  14   0.0000       0.267638         7.2828 
  15   0.0000       0.310328         8.4445 
  16   0.0000       0.311354         8.4724 
  17   0.0000       0.317097         8.6287 
  18   0.0000       0.360143         9.8000 
  19   0.0000       0.581042        15.8109 
  20   0.0000       0.592029        16.1099 
  21   0.0000       0.741365        20.1736 
  22   0.0000       0.748182        20.3591 
  23   0.0000       0.792769        21.5723 
  24   0.0000       0.838009        22.8034 
  25   0.0000       0.892311        24.2810 
  26   0.0000       0.904265        24.6063 
  27   0.0000       0.957139        26.0451 
  28   0.0000       0.990784        26.9606 
  29   0.0000       1.096626        29.8407 
  30   0.0000       1.116253        30.3748 
  31   0.0000       1.123973        30.5849 
  32   0.0000       1.183478        32.2041 
  33   0.0000       1.185642        32.2630 
  34   0.0000       1.486428        40.4478 
  35   0.0000       1.503403        40.9097 
  36   0.0000       1.509793        41.0835 
  37   0.0000       1.715683        46.6861 
  38   0.0000       1.742948        47.4280 
  39   0.0000       1.754708        47.7480 
  40   0.0000       2.760475        75.1164 
  41   0.0000       2.764484        75.2254 
  42   0.0000       2.906245        79.0830 
  43   0.0000       2.934323        79.8470 
  44   0.0000       2.948225        80.2253 
  45   0.0000       2.977690        81.0271 
  46   0.0000       3.046320        82.8946 
  47   0.0000       3.212449        87.4152 
  48   0.0000       3.225295        87.7647 
  49   0.0000       3.303209        89.8849 
  50   0.0000       3.306511        89.9747 
  51   0.0000       3.765512       102.4648 
  52   0.0000       3.776159       102.7545 
  53   0.0000       3.834583       104.3443 
  54   0.0000       3.926025       106.8326 
  55   0.0000       4.005565       108.9970 
  56   0.0000       4.081499       111.0632 
  57   0.0000       4.159123       113.1755 
  58   0.0000       4.162048       113.2551 
  59   0.0000       4.173898       113.5775 
  60   0.0000       4.697597       127.8281 
  61   0.0000       5.014594       136.4541 
  62   0.0000       5.364884       145.9859 
  63   0.0000       5.434106       147.8695 
  64   0.0000       5.550815       151.0453 
  65   0.0000       6.122457       166.6005 
  66   0.0000       6.151369       167.3873 
  67   0.0000       7.812173       212.5800 
  68   0.0000      29.120061       792.3971 
  69   0.0000      37.134674      1010.4859 
  70   0.0000      37.206814      1012.4489 
  71   0.0000      37.209473      1012.5212 
  72   0.0000     133.563025      3634.4347 

                    ********************************
                    * MULLIKEN POPULATION ANALYSIS *
                    ********************************

--------------------------------------------
MULLIKEN ATOMIC CHARGES AND SPIN POPULATIONS
--------------------------------------------
   0 C :   -0.427314    1.100628
   1 H :    0.142636   -0.034692
   2 H :    0.140663   -0.032909
   3 H :    0.144015   -0.033026
Sum of atomic charges         :    0.0000000
Sum of atomic spin populations:    1.0000000

-----------------------------------------------------
MULLIKEN REDUCED ORBITAL CHARGES AND SPIN POPULATIONS
-----------------------------------------------------
CHARGE
  0 C s       :     3.329673  s :     3.329673
      pz      :     1.042446  p :     3.071058
      px      :     1.016977
      py      :     1.011635
      dz2     :     0.005384  d :     0.023525
      dxz     :     0.005621
      dyz     :     0.005107
      dx2y2   :     0.001853
      dxy     :     0.005561
      f0      :     0.000372  f :     0.003058
      f+1     :     0.000329
      f-1     :     0.000802
      f+2     :     0.000411
      f-2     :     0.000406
      f+3     :     0.000479
      f-3     :     0.000259
  1 H s       :     0.831288  s :     0.831288
      pz      :     0.006864  p :     0.026076
      px      :     0.009073
      py      :     0.010139
  2 H s       :     0.832171  s :     0.832171
      pz      :     0.008437  p :     0.027166
      px      :     0.010075
      py      :     0.008655
  3 H s       :     0.828759  s :     0.828759
      pz      :     0.009755  p :     0.027225
      px      :     0.008369
      py      :     0.009101

SPIN
  0 C s       :     0.067826  s :     0.067826
      pz      :     0.161807  p :     1.037162
      px      :     0.428986
      py      :     0.446369
      dz2     :    -0.000044  d :    -0.003002
      dxz     :    -0.000200
      dyz     :    -0.000412
      dx2y2   :     0.000073
      dxy     :    -0.002419
      f0      :    -0.000038  f :    -0.001358
      f+1     :    -0.000187
      f-1     :    -0.000259
      f+2     :    -0.000226
      f-2     :    -0.000141
      f+3     :    -0.000268
      f-3     :    -0.000239
  1 H s       :    -0.044755  s :    -0.044755
      pz      :     0.001265  p :     0.010062
      px      :     0.004459
      py      :     0.004338
  2 H s       :    -0.043186  s :    -0.043186
      pz      :     0.001328  p :     0.010277
      px      :     0.004304
      py      :     0.004645
  3 H s       :    -0.043514  s :    -0.043514
      pz      :     0.001229  p :     0.010487
      px      :     0.004439
      py      :     0.004819


                     *******************************
                     * LOEWDIN POPULATION ANALYSIS *
                     *******************************

-------------------------------------------
LOEWDIN ATOMIC CHARGES AND SPIN POPULATIONS
-------------------------------------------
   0 C :   -0.144280    0.904366
   1 H :    0.059015    0.028232
   2 H :    0.039789    0.034574
   3 H :    0.045477    0.032828

----------------------------------------------------
LOEWDIN REDUCED ORBITAL CHARGES AND SPIN POPULATIONS
----------------------------------------------------
CHARGE
  0 C s       :     2.876585  s :     2.876585
      pz      :     1.113988  p :     3.168170
      px      :     1.032020
      py      :     1.022162
      dz2     :     0.024183  d :     0.091881
      dxz     :     0.023303
      dyz     :     0.020651
      dx2y2   :     0.007660
      dxy     :     0.016083
      f0      :     0.000779  f :     0.007644
      f+1     :     0.000711
      f-1     :     0.001861
      f+2     :     0.001180
      f-2     :     0.001166
      f+3     :     0.001271
      f-3     :     0.000676
  1 H s       :     0.801492  s :     0.801492
      pz      :     0.033395  p :     0.139494
      px      :     0.047893
      py      :     0.058206
  2 H s       :     0.807878  s :     0.807878
      pz      :     0.051773  p :     0.152334
      px      :     0.058731
      py      :     0.041830
  3 H s       :     0.805831  s :     0.805831
      pz      :     0.066318  p :     0.148692
      px      :     0.037742
      py      :     0.044632

SPIN
  0 C s       :     0.019490  s :     0.019490
      pz      :     0.128767  p :     0.893504
      px      :     0.374613
      py      :     0.390125
      dz2     :    -0.001309  d :    -0.007324
      dxz     :    -0.001396
      dyz     :    -0.001503
      dx2y2   :    -0.000372
      dxy     :    -0.002744
      f0      :    -0.000064  f :    -0.001304
      f+1     :    -0.000177
      f-1     :    -0.000308
      f+2     :    -0.000241
      f-2     :    -0.000085
      f+3     :    -0.000252
      f-3     :    -0.000177
  1 H s       :    -0.017397  s :    -0.017397
      pz      :     0.006234  p :     0.045629
      px      :     0.018940
      py      :     0.020454
  2 H s       :    -0.015549  s :    -0.015549
      pz      :     0.008321  p :     0.050123
      px      :     0.021189
      py      :     0.020613
  3 H s       :    -0.016211  s :    -0.016211
      pz      :     0.009505  p :     0.049039
      px      :     0.018904
      py      :     0.020631


                      *****************************
                      * MAYER POPULATION ANALYSIS *
                      *****************************

  NA   - Mulliken gross atomic population
  ZA   - Total nuclear charge
  QA   - Mulliken gross atomic charge
  VA   - Mayer's total valence
  BVA  - Mayer's bonded valence
  FA   - Mayer's free valence

  ATOM       NA         ZA         QA         VA         BVA        FA
  0 C      6.4273     6.0000    -0.4273     3.8788     2.9347     0.9441
  1 H      0.8574     1.0000     0.1426     0.9849     0.9829     0.0020
  2 H      0.8593     1.0000     0.1407     0.9820     0.9802     0.0019
  3 H      0.8560     1.0000     0.1440     0.9844     0.9825     0.0019

  Mayer bond orders larger than 0.100000
B(  0-C ,  1-H ) :   0.9778 B(  0-C ,  2-H ) :   0.9787 B(  0-C ,  3-H ) :   0.9782 


-------
TIMINGS
-------

Total SCF time: 0 days 0 hours 0 min 6 sec 

Total time                  ....       6.801 sec
Sum of individual times     ....       6.008 sec  ( 88.3%)

Fock matrix formation       ....       4.907 sec  ( 72.1%)
  Split-RI-J                ....       0.377 sec  (  7.7% of F)
  Chain of spheres X        ....       0.826 sec  ( 16.8% of F)
  XC integration            ....       2.737 sec  ( 55.8% of F)
    Basis function eval.    ....       0.097 sec  (  3.6% of XC)
    Density eval.           ....       0.144 sec  (  5.3% of XC)
    XC-Functional eval.     ....       0.116 sec  (  4.2% of XC)
    XC-Potential eval.      ....       0.143 sec  (  5.2% of XC)
Diagonalization             ....       0.036 sec  (  0.5%)
Density matrix formation    ....       0.009 sec  (  0.1%)
Population analysis         ....       0.051 sec  (  0.8%)
Initial guess               ....       0.066 sec  (  1.0%)
Orbital Transformation      ....       0.000 sec  (  0.0%)
Orbital Orthonormalization  ....       0.000 sec  (  0.0%)
DIIS solution               ....       0.094 sec  (  1.4%)
Grid generation             ....       0.844 sec  ( 12.4%)

Maximum memory used throughout the entire SCF-calculation: 59.0 MB

-------------------------   --------------------
FINAL SINGLE POINT ENERGY       -39.827952895872
-------------------------   --------------------

   --->>> g-tensor requested, so NeedSOC=true

                            ***************************************
                            *     ORCA property calculations      *
                            ***************************************

                                    ---------------------
                                    Active property flags
                                    ---------------------
   (+) Dipole Moment
   (+) g-tensor
   (+) Nuclear properties (Hyperfine,Quadrupole)
   (+) Spin-Orbit Integrals are needed


------------------------------------------------------------------------------
                       ORCA ELECTRIC PROPERTIES CALCULATION
------------------------------------------------------------------------------

Dipole Moment Calculation                       ... on
Quadrupole Moment Calculation                   ... off
Polarizability Calculation                      ... off
GBWName                                         ... /home/rwth0701/scratch/cs681498/orcajob__30556147-POEz/2626.gbw
Electron density                                ... /home/rwth0701/scratch/cs681498/orcajob__30556147-POEz/2626.scfp
The origin for moment calculation is the CENTER OF MASS  = ( 5.909551, -21.397070 -18.107162)

-------------
DIPOLE MOMENT
-------------
                                X             Y             Z
Electronic contribution:     -0.04584       0.03916       0.00469
Nuclear contribution   :      0.07417      -0.05647       0.00325
                        -----------------------------------------
Total Dipole Moment    :      0.02834      -0.01731       0.00794
                        -----------------------------------------
Magnitude (a.u.)       :      0.03414
Magnitude (Debye)      :      0.08678



--------------------
Rotational spectrum 
--------------------
 
Rotational constants in cm-1:    10.245691     9.131340     4.838243 
Rotational constants in MHz : 307158.077465 273750.699137 145046.887776 

 Dipole components along the rotational axes: 
x,y,z [a.u.] :     0.004172    -0.008322     0.032846 
x,y,z [Debye]:     0.010604    -0.021153     0.083489 

 


           ************************************************************
           *        Program running with 4 parallel MPI-processes     *
           *              working on a common directory               *
           ************************************************************
------------------------------------------------------------------------------
                         ORCA SPIN-ORBIT COUPLING CALCULATION
------------------------------------------------------------------------------

GBW file                                    ... /home/rwth0701/scratch/cs681498/orcajob__30556147-POEz/2626.gbw
Input density                               ... /home/rwth0701/scratch/cs681498/orcajob__30556147-POEz/2626.scfp
Output integrals                            ... /home/rwth0701/scratch/cs681498/orcajob__30556147-POEz/2626
Operator type                               ... Mean-field/Effective potential
   One-Electron Terms                       ... 1
   Coulomb Contribution                     ... 3
   Exchange Contribution                    ... 3
   Correlation Contribution                 ... 0
   Maximum number of centers                ... 4
SHARK 2-electron RIJ-SOMF                   ... done (  0.1 sec)
SHARK 1-electron  MaxCenter=4               ... done (  0.0 sec)
SHARK 2-electron DoJ,X=0,1 MaxCenter=1      ... done (  0.1 sec)

Maximum memory used throughout the entire SOC-calculation: 11.3 MB
Total time for SOC:  2.804


           ************************************************************
           *        Program running with 4 parallel MPI-processes     *
           *              working on a common directory               *
           ************************************************************
------------------------------------------------------------------------------
                                ORCA EPR/NMR CALCULATION
------------------------------------------------------------------------------

GBWName                      ... /home/rwth0701/scratch/cs681498/orcajob__30556147-POEz/2626.gbw
Electron density             ... /home/rwth0701/scratch/cs681498/orcajob__30556147-POEz/2626.scfp
Spin density                 ... /home/rwth0701/scratch/cs681498/orcajob__30556147-POEz/2626.scfr
Spin-orbit integrals         ... /home/rwth0701/scratch/cs681498/orcajob__30556147-POEz/2626
Treatment of gauge           ... GIAO (approximations 1/2el = 0,0)
Details of the CP(SCF) procedure:
       Solver   = POPLE   
       MaxIter  =    64   
       Tolerance=    1.000e-03
       COSX Grid=     1   
       Op-0     =   0-  4 =>   5- 72
       Op-1     =   0-  3 =>   4- 72
Multiplicity                 ... 2
g-tensor                     ... 1
NMR chemical shifts          ... 0
NMR spin-spin couplings      ... 0
NMR spectrum                 ... 0
Number of nuclei for epr/nmr ... 4
   Nucleus:   1H 
       Hyperfine : Isotope=    1 I=   0.500 P= 533.551
       Quadrupole: Isotope=    2 I=   1.000 Q=   0.003
       Spin-Orbit: Zeff=   1.000
       Nuclear Spin-Spin: Gn=   0.000
       EPRNMR Input: 
       rho(0)=N f(grad)=N a(iso)=Y a(dip)=Y a(orb)=Y sigma(nmr)=N spin-spin(nmr)=all-N,DSO-N,PSO-N,FC-N,SD-N
   Nucleus:   2H 
       Hyperfine : Isotope=    1 I=   0.500 P= 533.551
       Quadrupole: Isotope=    2 I=   1.000 Q=   0.003
       Spin-Orbit: Zeff=   1.000
       Nuclear Spin-Spin: Gn=   0.000
       EPRNMR Input: 
       rho(0)=N f(grad)=N a(iso)=Y a(dip)=Y a(orb)=Y sigma(nmr)=N spin-spin(nmr)=all-N,DSO-N,PSO-N,FC-N,SD-N
   Nucleus:   3H 
       Hyperfine : Isotope=    1 I=   0.500 P= 533.551
       Quadrupole: Isotope=    2 I=   1.000 Q=   0.003
       Spin-Orbit: Zeff=   1.000
       Nuclear Spin-Spin: Gn=   0.000
       EPRNMR Input: 
       rho(0)=N f(grad)=N a(iso)=Y a(dip)=Y a(orb)=Y sigma(nmr)=N spin-spin(nmr)=all-N,DSO-N,PSO-N,FC-N,SD-N
   Nucleus:   0C 
       Hyperfine : Isotope=   13 I=   0.500 P= 134.190
       Quadrupole: Isotope=   13 I=   0.500 Q=   0.000
       Spin-Orbit: Zeff=   3.600
       Nuclear Spin-Spin: Gn=   0.000
       EPRNMR Input: 
       rho(0)=N f(grad)=N a(iso)=Y a(dip)=Y a(orb)=Y sigma(nmr)=N spin-spin(nmr)=all-N,DSO-N,PSO-N,FC-N,SD-N
Forming RHS of the CP-SCF equations         ... 
Calculating right hand sides for GIAO treatment        ... 
  Entering RightHandSide GIAO. ScalHFX=    0.2000 NeedHFX=1
     -> 1-electron GIAO integrals will be done analytically
     -> RIJCOSX used in SCF. Same chosen for GIAO calculation.
     Making grid for GIAO integrations   ...

GRID GIAO
---------

General Integration Accuracy     IntAcc      ... 4.388
Radial Grid Type                 RadialGrid  ... OptM3 with GC (2021)
Angular Grid (max. ang.)         AngularGrid ... 4 (Lebedev-302)
Angular grid pruning method      GridPruning ... 4 (adaptive)
Weight generation scheme         WeightScheme... Becke
Basis function cutoff            BFCut       ... 1.0000e-10
Integration weight cutoff        WCut        ... 1.0000e-14
Angular grids for H and He will be reduced by one unit
Partially contracted basis set               ... off
Rotationally invariant grid construction     ... off

Total number of grid points                  ...    17063
Total number of batches                      ...      270
Average number of points per batch           ...       63
Average number of grid points per atom       ...     4266

  One-electron GIAO integrals (SHARK)     ... done
  Calculating G(B)[P]                     ... (RI-J: SHARK-ok) (COSX-ok) (add-J+K:ok) => dG/dB done
  DFT XC-terms                            ... done
  Extracting occupied and virtual blocks  ... 
  Operator  0  NO=   5 NV=  68 
  Operator  1  NO=   4 NV=  69 
  Transforming and RHS contribution       ... done
  Adding eps_i * S(B)_ai terms            ... done
  Projecting overlap derivatives          ... done
  Building G[dS/dB_ij] (COSX)             ... done
  Transforming to MO basis                ... done
  Summing G[dS/dB_ij] into RHS contribs.  ... done

  GIAO profiling information: 
    Total GIAO time               ...       0.8 sec
       GIAO 1-electron integrals  ...       0.0 sec (  0.5%)
       GIAO G(dS/dB) terms        ...       0.1 sec ( 11.9%)
       GIAO RI-J                  ...       0.1 sec ( 12.7%)
       GIAO COSX                  ...       0.1 sec ( 18.3%)
       GIAO XC-terms              ...       0.3 sec ( 35.8%)

  GIAO right hand side done


------------------------------------------------------------------------------
                           ORCA CP-SCF CALCULATION
------------------------------------------------------------------------------

Input orbitals are from        ... /home/rwth0701/scratch/cs681498/orcajob__30556147-POEz/2626.gbw
Input Perturbation             ... /home/rwth0701/scratch/cs681498/orcajob__30556147-POEz/2626.pin.tmp
Wavefunction output            ... /home/rwth0701/scratch/cs681498/orcajob__30556147-POEz/2626.pout.tmp
Perturbation mode              ... Imaginary perturbation
Solver                         ... POPLE
Max. number of iterations      ... 64
Convergence tolerance          ... 1.000e-03
Integral handling              ... Direct
DFT GridXC                     ... 1
COSX GridX                     ... 1
COSX IntAccX                   ... 3.067
COSX Algorithm                 ... Auto
Number of perturbations        ... 3
Number of operators            ... 2
Orbital ranges used for CP-SCF:
 Operator 0:  Orbitals   0...  4  to   5... 72
 Operator 1:  Orbitals   0...  3  to   4... 72
Variables per perturbation     ... 616
DFT calculation                         ... on
XC functional terms                     ... off
Hybrid DFT                              ... on
   Exchange mixing (SCF)                ...  0.200
   Exchange mixing (CP-SCF)             ...  0.200
   GGA exch. scaling(SCF)               ...  0.720
   GGA exch. scaling (CP-SCF)           ...  0.720
   GGA corr. scaling (SCF)              ...  0.810
   GGA corr. scaling (CP-SCF)           ...  0.810

CP-SCF GRID
-----------

General Integration Accuracy     IntAcc      ... 3.467
Radial Grid Type                 RadialGrid  ... OptM3 with GC (2021)
Angular Grid (max. ang.)         AngularGrid ... 1 (Lebedev-50)
Angular grid pruning method      GridPruning ... 4 (adaptive)
Weight generation scheme         WeightScheme... Becke
Basis function cutoff            BFCut       ... 1.0000e-10
Integration weight cutoff        WCut        ... 1.0000e-14
Angular grids for H and He will be reduced by one unit
Partially contracted basis set               ... off
Rotationally invariant grid construction     ... off

Total number of grid points                  ...     2341
Total number of batches                      ...       38
Average number of points per batch           ...       61
Average number of grid points per atom       ...      585

CP-SCF GRIDX
------------

General Integration Accuracy     IntAcc      ... 3.067
Radial Grid Type                 RadialGrid  ... OptM3 with GC (2021)
Angular Grid (max. ang.)         AngularGrid ... 1 (Lebedev-50)
Angular grid pruning method      GridPruning ... 4 (adaptive)
Weight generation scheme         WeightScheme... Becke
Basis function cutoff            BFCut       ... 1.0000e-10
Integration weight cutoff        WCut        ... 1.0000e-14
Angular grids for H and He will be reduced by one unit
Partially contracted basis set               ... on
Rotationally invariant grid construction     ... off

Total number of grid points                  ...     1076
Total number of batches                      ...       20
Average number of points per batch           ...       53
Average number of grid points per atom       ...      269

Memory available               ... 1014.6 MB
Memory needed per perturbation ...   0.4 MB
Perturbations treated per batch... 3
Number of batches              ... 1
     CP-SCF ITERATION   0:   8.9069e-01 (   0.1 sec   0/  3 done)
     CP-SCF ITERATION   1:   2.3986e-02 (   0.1 sec   0/  3 done)
     CP-SCF ITERATION   2:   1.5398e-03 (   0.1 sec   0/  3 done)
     CP-SCF ITERATION   3:   5.5849e-05 (   0.1 sec   3/  3 done)
                    *** THE CP-SCF HAS CONVERGED ***

Forming final perturbed densities           ... done
Transforming perturbed density to AO basis  ... done

Magnetic field perturbation calculated in  1.274 sec
GIAO: Diamagnetic terms      (analytic)     (SHARK) ... done
GIAO: 1el-Paramagnetic terms (analytic)     (SHARK) ... done

-------------------
ELECTRONIC G-MATRIX
-------------------

 The g-matrix: 
              2.0026217    0.0002992   -0.0001486
              0.0002964    2.0026153    0.0001664
             -0.0001535    0.0001742    2.0028166

 gel          2.0023193    2.0023193    2.0023193
 gRMC        -0.0001266   -0.0001266   -0.0001266
 gDSO(tot)    0.0000342    0.0000709    0.0000709
 gPSO(tot)    0.0000053    0.0006343    0.0006599
             ----------   ----------   ----------
 g(tot)       2.0022322    2.0028979    2.0029236 iso=  2.0026846
 Delta-g     -0.0000870    0.0005786    0.0006043 iso=  0.0003653
 Orientation: 
  X           0.6507828   -0.5950358   -0.4716081
  Y          -0.6670727   -0.1514366   -0.7294388
  Z           0.3626235    0.7893030   -0.4954845

Notes:  (1) The g-matrix conforms to the "BgS" spin Hamiltonian convention. 
        (2) The principal values are square roots of the eigenvalues of g*gT.
        (3) Orientations are eigenvectors of g*gT written as column vectors.
        (4) Individual contributions are projections of the full matrices onto the eigenvectors of g*gT.
        (5) Tensor is right-handed.


-----------------------------------------
ELECTRIC AND MAGNETIC HYPERFINE STRUCTURE
-----------------------------------------

 -----------------------------------------------------------
 Nucleus   1H : A:ISTP=    1 I=  0.5 P=533.5514 MHz/au**3
                Q:ISTP=    2 I=  1.0 Q=  0.0029 barn     
 -----------------------------------------------------------
 Solving for nuclear perturbation:
Forming RHS of the CP-SCF equations         ... 
Calc. nucleus orbit integrals (SHARK)       ... done

------------------------------------------------------------------------------
                           ORCA CP-SCF CALCULATION
------------------------------------------------------------------------------

Input orbitals are from        ... /home/rwth0701/scratch/cs681498/orcajob__30556147-POEz/2626.gbw
Input Perturbation             ... /home/rwth0701/scratch/cs681498/orcajob__30556147-POEz/2626.pin.tmp
Wavefunction output            ... /home/rwth0701/scratch/cs681498/orcajob__30556147-POEz/2626.pout.tmp
Perturbation mode              ... Imaginary perturbation
Solver                         ... POPLE
Max. number of iterations      ... 64
Convergence tolerance          ... 1.000e-03
Integral handling              ... Direct
DFT GridXC                     ... 1
COSX GridX                     ... 1
COSX IntAccX                   ... 3.067
COSX Algorithm                 ... Auto
Number of perturbations        ... 3
Number of operators            ... 2
Orbital ranges used for CP-SCF:
 Operator 0:  Orbitals   0...  4  to   5... 72
 Operator 1:  Orbitals   0...  3  to   4... 72
Variables per perturbation     ... 616
DFT calculation                         ... on
XC functional terms                     ... off
Hybrid DFT                              ... on
   Exchange mixing (SCF)                ...  0.200
   Exchange mixing (CP-SCF)             ...  0.200
   GGA exch. scaling(SCF)               ...  0.720
   GGA exch. scaling (CP-SCF)           ...  0.720
   GGA corr. scaling (SCF)              ...  0.810
   GGA corr. scaling (CP-SCF)           ...  0.810

CP-SCF GRID
-----------

General Integration Accuracy     IntAcc      ... 3.467
Radial Grid Type                 RadialGrid  ... OptM3 with GC (2021)
Angular Grid (max. ang.)         AngularGrid ... 1 (Lebedev-50)
Angular grid pruning method      GridPruning ... 4 (adaptive)
Weight generation scheme         WeightScheme... Becke
Basis function cutoff            BFCut       ... 1.0000e-10
Integration weight cutoff        WCut        ... 1.0000e-14
Angular grids for H and He will be reduced by one unit
Partially contracted basis set               ... off
Rotationally invariant grid construction     ... off

Total number of grid points                  ...     2341
Total number of batches                      ...       38
Average number of points per batch           ...       61
Average number of grid points per atom       ...      585

CP-SCF GRIDX
------------

General Integration Accuracy     IntAcc      ... 3.067
Radial Grid Type                 RadialGrid  ... OptM3 with GC (2021)
Angular Grid (max. ang.)         AngularGrid ... 1 (Lebedev-50)
Angular grid pruning method      GridPruning ... 4 (adaptive)
Weight generation scheme         WeightScheme... Becke
Basis function cutoff            BFCut       ... 1.0000e-10
Integration weight cutoff        WCut        ... 1.0000e-14
Angular grids for H and He will be reduced by one unit
Partially contracted basis set               ... on
Rotationally invariant grid construction     ... off

Total number of grid points                  ...     1076
Total number of batches                      ...       20
Average number of points per batch           ...       53
Average number of grid points per atom       ...      269

Memory available               ... 968.0 MB
Memory needed per perturbation ...   0.4 MB
Perturbations treated per batch... 3
Number of batches              ... 1
     CP-SCF ITERATION   0:   5.3851e-02 (   0.1 sec   0/  3 done)
     CP-SCF ITERATION   1:   2.4347e-03 (   0.1 sec   0/  3 done)
     CP-SCF ITERATION   2:   1.7830e-04 (   0.1 sec   3/  3 done)
                    *** THE CP-SCF HAS CONVERGED ***

Forming final perturbed densities           ... done
Transforming perturbed density to AO basis  ... done

 Raw HFC matrix (all values in MHz): 
 -----------------------------------
               -59.5552              17.9814              20.9235
                17.9814             -42.4421               5.0717
                20.9235               5.0717             -93.4598

 A(FC)         -65.1668             -65.1668             -65.1668
 A(SD)          37.9768               0.5050             -38.4818
 A(ORB+DIA)      0.0139              -0.0007               0.0300    A(PC) =   0.0144
 A(ORB)          0.0092               0.0004               0.0286    A(PC) =   0.0127
 A(DIA)          0.0048              -0.0011               0.0013    A(PC) =   0.0017
             ----------           ----------           ----------
 A(Tot)        -27.1761             -64.6624            -103.6186    A(iso)=  -65.1524
 Orientation: 
  X          -0.5866391            0.6751262           -0.4472798
  Y          -0.7721339           -0.6328554            0.0574733
  Z          -0.2442617            0.3790759            0.8925456

Notes:  (1) The A matrix conforms to the "SAI" spin Hamiltonian convention.
        (2) Tensor is right-handed.

 -----------------------------------------------------------
 Nucleus   2H : A:ISTP=    1 I=  0.5 P=533.5514 MHz/au**3
                Q:ISTP=    2 I=  1.0 Q=  0.0029 barn     
 -----------------------------------------------------------
 Solving for nuclear perturbation:
Forming RHS of the CP-SCF equations         ... 
Calc. nucleus orbit integrals (SHARK)       ... done

------------------------------------------------------------------------------
                           ORCA CP-SCF CALCULATION
------------------------------------------------------------------------------

Input orbitals are from        ... /home/rwth0701/scratch/cs681498/orcajob__30556147-POEz/2626.gbw
Input Perturbation             ... /home/rwth0701/scratch/cs681498/orcajob__30556147-POEz/2626.pin.tmp
Wavefunction output            ... /home/rwth0701/scratch/cs681498/orcajob__30556147-POEz/2626.pout.tmp
Perturbation mode              ... Imaginary perturbation
Solver                         ... POPLE
Max. number of iterations      ... 64
Convergence tolerance          ... 1.000e-03
Integral handling              ... Direct
DFT GridXC                     ... 1
COSX GridX                     ... 1
COSX IntAccX                   ... 3.067
COSX Algorithm                 ... Auto
Number of perturbations        ... 3
Number of operators            ... 2
Orbital ranges used for CP-SCF:
 Operator 0:  Orbitals   0...  4  to   5... 72
 Operator 1:  Orbitals   0...  3  to   4... 72
Variables per perturbation     ... 616
DFT calculation                         ... on
XC functional terms                     ... off
Hybrid DFT                              ... on
   Exchange mixing (SCF)                ...  0.200
   Exchange mixing (CP-SCF)             ...  0.200
   GGA exch. scaling(SCF)               ...  0.720
   GGA exch. scaling (CP-SCF)           ...  0.720
   GGA corr. scaling (SCF)              ...  0.810
   GGA corr. scaling (CP-SCF)           ...  0.810

CP-SCF GRID
-----------

General Integration Accuracy     IntAcc      ... 3.467
Radial Grid Type                 RadialGrid  ... OptM3 with GC (2021)
Angular Grid (max. ang.)         AngularGrid ... 1 (Lebedev-50)
Angular grid pruning method      GridPruning ... 4 (adaptive)
Weight generation scheme         WeightScheme... Becke
Basis function cutoff            BFCut       ... 1.0000e-10
Integration weight cutoff        WCut        ... 1.0000e-14
Angular grids for H and He will be reduced by one unit
Partially contracted basis set               ... off
Rotationally invariant grid construction     ... off

Total number of grid points                  ...     2341
Total number of batches                      ...       38
Average number of points per batch           ...       61
Average number of grid points per atom       ...      585

CP-SCF GRIDX
------------

General Integration Accuracy     IntAcc      ... 3.067
Radial Grid Type                 RadialGrid  ... OptM3 with GC (2021)
Angular Grid (max. ang.)         AngularGrid ... 1 (Lebedev-50)
Angular grid pruning method      GridPruning ... 4 (adaptive)
Weight generation scheme         WeightScheme... Becke
Basis function cutoff            BFCut       ... 1.0000e-10
Integration weight cutoff        WCut        ... 1.0000e-14
Angular grids for H and He will be reduced by one unit
Partially contracted basis set               ... on
Rotationally invariant grid construction     ... off

Total number of grid points                  ...     1076
Total number of batches                      ...       20
Average number of points per batch           ...       53
Average number of grid points per atom       ...      269

Memory available               ... 967.8 MB
Memory needed per perturbation ...   0.4 MB
Perturbations treated per batch... 3
Number of batches              ... 1
     CP-SCF ITERATION   0:   5.9858e-02 (   0.1 sec   0/  3 done)
     CP-SCF ITERATION   1:   2.4467e-03 (   0.1 sec   0/  3 done)
     CP-SCF ITERATION   2:   1.9687e-04 (   0.1 sec   3/  3 done)
                    *** THE CP-SCF HAS CONVERGED ***

Forming final perturbed densities           ... done
Transforming perturbed density to AO basis  ... done

 Raw HFC matrix (all values in MHz): 
 -----------------------------------
               -45.8829              -2.5243             -26.2143
                -2.5241             -77.5458             -25.9975
               -26.2139             -25.9973             -63.3625

 A(FC)         -62.2786             -62.2786             -62.2786
 A(SD)          39.0594               2.3231             -41.3826
 A(ORB+DIA)      0.0132              -0.0007               0.0322    A(PC) =   0.0149
 A(ORB)          0.0080               0.0005               0.0307    A(PC) =   0.0131
 A(DIA)          0.0052              -0.0012               0.0015    A(PC) =   0.0019
             ----------           ----------           ----------
 A(Tot)        -23.2060             -59.9562            -103.6290    A(iso)=  -62.2637
 Orientation: 
  X           0.7138802            0.6194947           -0.3264988
  Y           0.2749572           -0.6767742           -0.6829167
  Z          -0.6440292            0.3977475           -0.6534702

Notes:  (1) The A matrix conforms to the "SAI" spin Hamiltonian convention.
        (2) Tensor is right-handed.

 -----------------------------------------------------------
 Nucleus   3H : A:ISTP=    1 I=  0.5 P=533.5514 MHz/au**3
                Q:ISTP=    2 I=  1.0 Q=  0.0029 barn     
 -----------------------------------------------------------
 Solving for nuclear perturbation:
Forming RHS of the CP-SCF equations         ... 
Calc. nucleus orbit integrals (SHARK)       ... done

------------------------------------------------------------------------------
                           ORCA CP-SCF CALCULATION
------------------------------------------------------------------------------

Input orbitals are from        ... /home/rwth0701/scratch/cs681498/orcajob__30556147-POEz/2626.gbw
Input Perturbation             ... /home/rwth0701/scratch/cs681498/orcajob__30556147-POEz/2626.pin.tmp
Wavefunction output            ... /home/rwth0701/scratch/cs681498/orcajob__30556147-POEz/2626.pout.tmp
Perturbation mode              ... Imaginary perturbation
Solver                         ... POPLE
Max. number of iterations      ... 64
Convergence tolerance          ... 1.000e-03
Integral handling              ... Direct
DFT GridXC                     ... 1
COSX GridX                     ... 1
COSX IntAccX                   ... 3.067
COSX Algorithm                 ... Auto
Number of perturbations        ... 3
Number of operators            ... 2
Orbital ranges used for CP-SCF:
 Operator 0:  Orbitals   0...  4  to   5... 72
 Operator 1:  Orbitals   0...  3  to   4... 72
Variables per perturbation     ... 616
DFT calculation                         ... on
XC functional terms                     ... off
Hybrid DFT                              ... on
   Exchange mixing (SCF)                ...  0.200
   Exchange mixing (CP-SCF)             ...  0.200
   GGA exch. scaling(SCF)               ...  0.720
   GGA exch. scaling (CP-SCF)           ...  0.720
   GGA corr. scaling (SCF)              ...  0.810
   GGA corr. scaling (CP-SCF)           ...  0.810

CP-SCF GRID
-----------

General Integration Accuracy     IntAcc      ... 3.467
Radial Grid Type                 RadialGrid  ... OptM3 with GC (2021)
Angular Grid (max. ang.)         AngularGrid ... 1 (Lebedev-50)
Angular grid pruning method      GridPruning ... 4 (adaptive)
Weight generation scheme         WeightScheme... Becke
Basis function cutoff            BFCut       ... 1.0000e-10
Integration weight cutoff        WCut        ... 1.0000e-14
Angular grids for H and He will be reduced by one unit
Partially contracted basis set               ... off
Rotationally invariant grid construction     ... off

Total number of grid points                  ...     2341
Total number of batches                      ...       38
Average number of points per batch           ...       61
Average number of grid points per atom       ...      585

CP-SCF GRIDX
------------

General Integration Accuracy     IntAcc      ... 3.067
Radial Grid Type                 RadialGrid  ... OptM3 with GC (2021)
Angular Grid (max. ang.)         AngularGrid ... 1 (Lebedev-50)
Angular grid pruning method      GridPruning ... 4 (adaptive)
Weight generation scheme         WeightScheme... Becke
Basis function cutoff            BFCut       ... 1.0000e-10
Integration weight cutoff        WCut        ... 1.0000e-14
Angular grids for H and He will be reduced by one unit
Partially contracted basis set               ... on
Rotationally invariant grid construction     ... off

Total number of grid points                  ...     1076
Total number of batches                      ...       20
Average number of points per batch           ...       53
Average number of grid points per atom       ...      269

Memory available               ... 967.7 MB
Memory needed per perturbation ...   0.4 MB
Perturbations treated per batch... 3
Number of batches              ... 1
     CP-SCF ITERATION   0:   6.5370e-02 (   0.1 sec   0/  3 done)
     CP-SCF ITERATION   1:   2.5199e-03 (   0.1 sec   0/  3 done)
     CP-SCF ITERATION   2:   1.8323e-04 (   0.1 sec   3/  3 done)
                    *** THE CP-SCF HAS CONVERGED ***

Forming final perturbed densities           ... done
Transforming perturbed density to AO basis  ... done

 Raw HFC matrix (all values in MHz): 
 -----------------------------------
               -86.4917             -18.8698               9.0929
               -18.8700             -69.6163              21.5530
                 9.0925              21.5527             -35.5395

 A(FC)         -63.8972             -63.8972             -63.8972
 A(SD)          38.7801               1.8182             -40.5983
 A(ORB+DIA)      0.0134              -0.0007               0.0313    A(PC) =   0.0147
 A(ORB)          0.0083               0.0005               0.0298    A(PC) =   0.0129
 A(DIA)          0.0051              -0.0012               0.0015    A(PC) =   0.0018
             ----------           ----------           ----------
 A(Tot)        -25.1037             -62.0796            -104.4642    A(iso)=  -63.8825
 Orientation: 
  X          -0.0007387           -0.6511795           -0.7589234
  Y           0.4360534            0.6827613           -0.5862546
  Z           0.8999205           -0.3313642            0.2834447

Notes:  (1) The A matrix conforms to the "SAI" spin Hamiltonian convention.
        (2) Tensor is right-handed.

 -----------------------------------------------------------
 Nucleus   0C : A:ISTP=   13 I=  0.5 P=134.1903 MHz/au**3
                Q:ISTP=   13 I=  0.5 Q=  0.0000 barn     
 -----------------------------------------------------------
 Solving for nuclear perturbation:
Forming RHS of the CP-SCF equations         ... 
Calc. nucleus orbit integrals (SHARK)       ... done

------------------------------------------------------------------------------
                           ORCA CP-SCF CALCULATION
------------------------------------------------------------------------------

Input orbitals are from        ... /home/rwth0701/scratch/cs681498/orcajob__30556147-POEz/2626.gbw
Input Perturbation             ... /home/rwth0701/scratch/cs681498/orcajob__30556147-POEz/2626.pin.tmp
Wavefunction output            ... /home/rwth0701/scratch/cs681498/orcajob__30556147-POEz/2626.pout.tmp
Perturbation mode              ... Imaginary perturbation
Solver                         ... POPLE
Max. number of iterations      ... 64
Convergence tolerance          ... 1.000e-03
Integral handling              ... Direct
DFT GridXC                     ... 1
COSX GridX                     ... 1
COSX IntAccX                   ... 3.067
COSX Algorithm                 ... Auto
Number of perturbations        ... 3
Number of operators            ... 2
Orbital ranges used for CP-SCF:
 Operator 0:  Orbitals   0...  4  to   5... 72
 Operator 1:  Orbitals   0...  3  to   4... 72
Variables per perturbation     ... 616
DFT calculation                         ... on
XC functional terms                     ... off
Hybrid DFT                              ... on
   Exchange mixing (SCF)                ...  0.200
   Exchange mixing (CP-SCF)             ...  0.200
   GGA exch. scaling(SCF)               ...  0.720
   GGA exch. scaling (CP-SCF)           ...  0.720
   GGA corr. scaling (SCF)              ...  0.810
   GGA corr. scaling (CP-SCF)           ...  0.810

CP-SCF GRID
-----------

General Integration Accuracy     IntAcc      ... 3.467
Radial Grid Type                 RadialGrid  ... OptM3 with GC (2021)
Angular Grid (max. ang.)         AngularGrid ... 1 (Lebedev-50)
Angular grid pruning method      GridPruning ... 4 (adaptive)
Weight generation scheme         WeightScheme... Becke
Basis function cutoff            BFCut       ... 1.0000e-10
Integration weight cutoff        WCut        ... 1.0000e-14
Angular grids for H and He will be reduced by one unit
Partially contracted basis set               ... off
Rotationally invariant grid construction     ... off

Total number of grid points                  ...     2341
Total number of batches                      ...       38
Average number of points per batch           ...       61
Average number of grid points per atom       ...      585

CP-SCF GRIDX
------------

General Integration Accuracy     IntAcc      ... 3.067
Radial Grid Type                 RadialGrid  ... OptM3 with GC (2021)
Angular Grid (max. ang.)         AngularGrid ... 1 (Lebedev-50)
Angular grid pruning method      GridPruning ... 4 (adaptive)
Weight generation scheme         WeightScheme... Becke
Basis function cutoff            BFCut       ... 1.0000e-10
Integration weight cutoff        WCut        ... 1.0000e-14
Angular grids for H and He will be reduced by one unit
Partially contracted basis set               ... on
Rotationally invariant grid construction     ... off

Total number of grid points                  ...     1076
Total number of batches                      ...       20
Average number of points per batch           ...       53
Average number of grid points per atom       ...      269

Memory available               ... 967.6 MB
Memory needed per perturbation ...   0.4 MB
Perturbations treated per batch... 3
Number of batches              ... 1
     CP-SCF ITERATION   0:   1.0301e+00 (   0.1 sec   0/  3 done)
     CP-SCF ITERATION   1:   3.8086e-02 (   0.1 sec   0/  3 done)
     CP-SCF ITERATION   2:   2.7448e-03 (   0.1 sec   0/  3 done)
     CP-SCF ITERATION   3:   1.3019e-04 (   0.1 sec   3/  3 done)
                    *** THE CP-SCF HAS CONVERGED ***

Forming final perturbed densities           ... done
Transforming perturbed density to AO basis  ... done

 Raw HFC matrix (all values in MHz): 
 -----------------------------------
               103.9918            -103.9151              57.7826
              -103.9151             108.2656             -59.0479
                57.7826             -59.0479              34.8349

 A(FC)          82.4767              82.4767              82.4767
 A(SD)         -80.2970             -80.1125             160.4096
 A(ORB+DIA)     -0.1635              -0.1624              -0.0119    A(PC) =  -0.1126
 A(ORB)         -0.1639              -0.1628              -0.0118    A(PC) =  -0.1128
 A(DIA)          0.0004               0.0004              -0.0001    A(PC) =   0.0002
             ----------           ----------           ----------
 A(Tot)          2.0162               2.2018             242.8744    A(iso)=   82.3641
 Orientation: 
  X          -0.0841787            0.7549627           -0.6503424
  Y           0.4198816            0.6187615            0.6639530
  Z           0.9036666           -0.2171761           -0.3690815

Notes:  (1) The A matrix conforms to the "SAI" spin Hamiltonian convention.
        (2) Tensor is right-handed.


--------------------------------------------------------------------------------
----------------------------------------------------------------------------
                           ORCA EULER ANGLE PROGRAM
----------------------------------------------------------------------------

Only g-tensor available        -->  using g-tensor as reference tensor

Reference tensor               ...  g

g-tensor ordering              ...  |g_min> --> |gx>
                                    |g_mid> --> |gy>
                                    |g_max> --> |gz>

A- and EFG-tensor ordering     ...  the axes |Ax>, |Qx>, |Ay>, etc. are assigned
                                    such that the Euler rotation is minimal. You
                                    can find the respective eigenvalues as Ax,
                                    EFGx, Ay, etc. in the tables below.
                                    The relation of |Ax>, |Ay>,  etc. to Amin, Amid, etc.
                                    (as printed in the ORCA EPR/NMR CALCULATION Output)
                                    is obtained in the detailed printout.

Euler rotation around          ...  z - y - z
   First rotation              -->  by alpha around z
   Second rotation             -->  by beta around y'
   Third rotation              -->  by gamma around z''
   Positive / Negative angle   -->  clockwise / counterclockwise rotation

Plot EFG-tensors                    (-)
Plot HFC-tensors                    (-)
Detailed Printout                   (-)

-------------------------------------------------------------------------
          Euler rotation of hyperfine tensor to g-tensor
-------------------------------------------------------------------------

-------------------------------------------------------------------
 Atom  |   Alpha    Beta    Gamma   |   Ax       Ay       Az 
       |          [degrees]         |           [MHz]         
-------------------------------------------------------------------
  1H      -99.3     16.1     99.3     -64.66  -103.62   -27.18
  2H       88.8     12.6    -91.6     -59.96   -23.21  -103.63
  3H       87.6     40.2    -86.9     -62.08  -104.46   -25.10
  0C       90.4     44.4    -90.6     242.87     2.20     2.02
-------------------------------------------------------------------


Maximum memory used throughout the entire EPRNMR-calculation: 67.6 MB

Timings for individual modules:

Sum of individual times         ...       25.543 sec (=   0.426 min)
GTO integral calculation        ...        5.708 sec (=   0.095 min)  22.3 %
Spin-Orbit-Coupling Matrices    ...        2.795 sec (=   0.047 min)  10.9 %
SCF iterations                  ...       10.470 sec (=   0.175 min)  41.0 %
EPR/NMR calculation             ...        6.570 sec (=   0.109 min)  25.7 %
                             ****ORCA TERMINATED NORMALLY****
TOTAL RUN TIME: 0 days 0 hours 0 minutes 27 seconds 964 msec
