Job execution start: Tue Oct 25 00:43:12 CEST 2022
Shared library path: /home/cs681498/orca:/opt/MPI/openmpi-4.1.1/linux/gcc_4.8.5/lib:/opt/MPI/openmpi-4.1.1/linux/gcc_4.8.5/lib/lib32
Slurm Job ID is: 30556571
Slurm Job name is: 18452
ncm0367

                                 *****************
                                 * O   R   C   A *
                                 *****************

                                            #,                                       
                                            ###                                      
                                            ####                                     
                                            #####                                    
                                            ######                                   
                                           ########,                                 
                                     ,,################,,,,,                         
                               ,,#################################,,                 
                          ,,##########################################,,             
                       ,#########################################, ''#####,          
                    ,#############################################,,   '####,        
                  ,##################################################,,,,####,       
                ,###########''''           ''''###############################       
              ,#####''   ,,,,##########,,,,          '''####'''          '####       
            ,##' ,,,,###########################,,,                        '##       
           ' ,,###''''                  '''############,,,                           
         ,,##''                                '''############,,,,        ,,,,,,###''
      ,#''                                            '''#######################'''  
     '                                                          ''''####''''         
             ,#######,   #######,   ,#######,      ##                                
            ,#'     '#,  ##    ##  ,#'     '#,    #''#        ######   ,####,        
            ##       ##  ##   ,#'  ##            #'  '#       #        #'  '#        
            ##       ##  #######   ##           ,######,      #####,   #    #        
            '#,     ,#'  ##    ##  '#,     ,#' ,#      #,         ##   #,  ,#        
             '#######'   ##     ##  '#######'  #'      '#     #####' # '####'        



                  #######################################################
                  #                        -***-                        #
                  #          Department of theory and spectroscopy      #
                  #    Directorship and core code : Frank Neese         #
                  #        Max Planck Institute fuer Kohlenforschung    #
                  #                Kaiser Wilhelm Platz 1               #
                  #                 D-45470 Muelheim/Ruhr               #
                  #                      Germany                        #
                  #                                                     #
                  #                  All rights reserved                #
                  #                        -***-                        #
                  #######################################################


                         Program Version 5.0.3 -  RELEASE  -


 With contributions from (in alphabetic order):
   Daniel Aravena         : Magnetic Suceptibility
   Michael Atanasov       : Ab Initio Ligand Field Theory (pilot matlab implementation)
   Alexander A. Auer      : GIAO ZORA, VPT2 properties, NMR spectrum
   Ute Becker             : Parallelization
   Giovanni Bistoni       : ED, misc. LED, open-shell LED, HFLD
   Martin Brehm           : Molecular dynamics
   Dmytro Bykov           : SCF Hessian
   Vijay G. Chilkuri      : MRCI spin determinant printing, contributions to CSF-ICE
   Dipayan Datta          : RHF DLPNO-CCSD density
   Achintya Kumar Dutta   : EOM-CC, STEOM-CC
   Dmitry Ganyushin       : Spin-Orbit,Spin-Spin,Magnetic field MRCI
   Miquel Garcia          : C-PCM and meta-GGA Hessian, CC/C-PCM, Gaussian charge scheme
   Yang Guo               : DLPNO-NEVPT2, F12-NEVPT2, CIM, IAO-localization
   Andreas Hansen         : Spin unrestricted coupled pair/coupled cluster methods
   Benjamin Helmich-Paris : MC-RPA, TRAH-SCF, COSX integrals
   Lee Huntington         : MR-EOM, pCC
   Robert Izsak           : Overlap fitted RIJCOSX, COSX-SCS-MP3, EOM
   Marcus Kettner         : VPT2
   Christian Kollmar      : KDIIS, OOCD, Brueckner-CCSD(T), CCSD density, CASPT2, CASPT2-K
   Simone Kossmann        : Meta GGA functionals, TD-DFT gradient, OOMP2, MP2 Hessian
   Martin Krupicka        : Initial AUTO-CI
   Lucas Lang             : DCDCAS
   Marvin Lechner         : AUTO-CI (C++ implementation), FIC-MRCC
   Dagmar Lenk            : GEPOL surface, SMD
   Dimitrios Liakos       : Extrapolation schemes; Compound Job, initial MDCI parallelization
   Dimitrios Manganas     : Further ROCIS development; embedding schemes
   Dimitrios Pantazis     : SARC Basis sets
   Anastasios Papadopoulos: AUTO-CI, single reference methods and gradients
   Taras Petrenko         : DFT Hessian,TD-DFT gradient, ASA, ECA, R-Raman, ABS, FL, XAS/XES, NRVS
   Peter Pinski           : DLPNO-MP2, DLPNO-MP2 Gradient
   Christoph Reimann      : Effective Core Potentials
   Marius Retegan         : Local ZFS, SOC
   Christoph Riplinger    : Optimizer, TS searches, QM/MM, DLPNO-CCSD(T), (RO)-DLPNO pert. Triples
   Tobias Risthaus        : Range-separated hybrids, TD-DFT gradient, RPA, STAB
   Michael Roemelt        : Original ROCIS implementation
   Masaaki Saitow         : Open-shell DLPNO-CCSD energy and density
   Barbara Sandhoefer     : DKH picture change effects
   Avijit Sen             : IP-ROCIS
   Kantharuban Sivalingam : CASSCF convergence, NEVPT2, FIC-MRCI
   Bernardo de Souza      : ESD, SOC TD-DFT
   Georgi Stoychev        : AutoAux, RI-MP2 NMR, DLPNO-MP2 response
   Willem Van den Heuvel  : Paramagnetic NMR
   Boris Wezisla          : Elementary symmetry handling
   Frank Wennmohs         : Technical directorship


 We gratefully acknowledge several colleagues who have allowed us to
 interface, adapt or use parts of their codes:
   Stefan Grimme, W. Hujo, H. Kruse, P. Pracht,  : VdW corrections, initial TS optimization,
                  C. Bannwarth, S. Ehlert          DFT functionals, gCP, sTDA/sTD-DF
   Ed Valeev, F. Pavosevic, A. Kumar             : LibInt (2-el integral package), F12 methods
   Garnet Chan, S. Sharma, J. Yang, R. Olivares  : DMRG
   Ulf Ekstrom                                   : XCFun DFT Library
   Mihaly Kallay                                 : mrcc  (arbitrary order and MRCC methods)
   Jiri Pittner, Ondrej Demel                    : Mk-CCSD
   Frank Weinhold                                : gennbo (NPA and NBO analysis)
   Christopher J. Cramer and Donald G. Truhlar   : smd solvation model
   Lars Goerigk                                  : TD-DFT with DH, B97 family of functionals
   V. Asgeirsson, H. Jonsson                     : NEB implementation
   FAccTs GmbH                                   : IRC, NEB, NEB-TS, DLPNO-Multilevel, CI-OPT
                                                   MM, QMMM, 2- and 3-layer-ONIOM, Crystal-QMMM,
                                                   LR-CPCM, SF, NACMEs, symmetry and pop. for TD-DFT,
                                                   nearIR, NL-DFT gradient (VV10), updates on ESD,
                                                   ML-optimized integration grids
   S Lehtola, MJT Oliveira, MAL Marques          : LibXC Library
   Liviu Ungur et al                             : ANISO software


 Your calculation uses the libint2 library for the computation of 2-el integrals
 For citations please refer to: http://libint.valeyev.net

 Your ORCA version has been built with support for libXC version: 5.1.0
 For citations please refer to: https://tddft.org/programs/libxc/

 This ORCA versions uses:
   CBLAS   interface :  Fast vector & matrix operations
   LAPACKE interface :  Fast linear algebra routines
   SCALAPACK package :  Parallel linear algebra routines
   Shared memory     :  Shared parallel matrices
   BLAS/LAPACK       :  OpenBLAS 0.3.15  USE64BITINT DYNAMIC_ARCH NO_AFFINITY SkylakeX SINGLE_THREADED
        Core in use  :  SkylakeX
   Copyright (c) 2011-2014, The OpenBLAS Project


================================================================================

----- Orbital basis set information -----
Your calculation utilizes the basis: EPR-III
   V. Barone, in Recent Advances in Density Functional Methods, Part 1 (ed. D. P. Chong), World Scientific, Singapore, 1995, p. 287.
   N. Rega, M. Cossi and V. Barone, J. Chem. Phys. 105, 11060 (1996).

----- AuxJ basis set information -----
Your calculation utilizes the AutoAux generation procedure.
  G. L. Stoychev, A. A. Auer, F. Neese, J. Chem. Theory Comput. 13, 554 (2017)

----- AuxC basis set information -----
Your calculation utilizes the AutoAux generation procedure.
  G. L. Stoychev, A. A. Auer, F. Neese, J. Chem. Theory Comput. 13, 554 (2017)

----- AuxJK basis set information -----
Your calculation utilizes the AutoAux generation procedure.
  G. L. Stoychev, A. A. Auer, F. Neese, J. Chem. Theory Comput. 13, 554 (2017)

================================================================================
                                        WARNINGS
                       Please study these warnings very carefully!
================================================================================


WARNING: your system is open-shell and RHF/RKS was chosen
  ===> : WILL SWITCH to UHF/UKS


INFO   : the flag for use of the SHARK integral package has been found!

================================================================================
                                       INPUT FILE
================================================================================
NAME = /home/rwth0701/scratch/cs681498/orcajob__30556571-Vi0e/18452.inp
|  1> !B3LYP EPR-III Autoaux
|  2> !PAL4
|  3> 
|  4> * xyz 0 2
|  5>  C    -87.1530681539   -115.2010047143    -32.0536589936
|  6>  H    -86.4527849792   -114.4062984141    -31.9603185000
|  7>  H    -88.2016899305   -115.0105824451    -32.0879118121
|  8>  H    -86.9836025125   -116.3319363775    -32.1414446729
|  9> *
| 10> 
| 11> %EPRNMR
| 12>         GTENSOR   TRUE
| 13>         NUCLEI    = ALL H {AISO, ADIP, AORB}
| 14>         NUCLEI    = ALL C {AISO, ADIP, AORB}
| 15> END
| 16> 
| 17> 
| 18>                          ****END OF INPUT****
================================================================================

                       ****************************
                       * Single Point Calculation *
                       ****************************

---------------------------------
CARTESIAN COORDINATES (ANGSTROEM)
---------------------------------
  C    -87.153068  -115.201005  -32.053659
  H    -86.452785  -114.406298  -31.960318
  H    -88.201690  -115.010582  -32.087912
  H    -86.983603  -116.331936  -32.141445

----------------------------
CARTESIAN COORDINATES (A.U.)
----------------------------
  NO LB      ZA    FRAG     MASS         X           Y           Z
   0 C     6.0000    0    12.011  -164.695431  -217.698349  -60.572637
   1 H     1.0000    0     1.008  -163.372087  -216.196572  -60.396249
   2 H     1.0000    0     1.008  -166.677039  -217.338503  -60.637366
   3 H     1.0000    0     1.008  -164.375187  -219.835500  -60.738528

--------------------------------
INTERNAL COORDINATES (ANGSTROEM)
--------------------------------
 C      0   0   0     0.000000000000     0.00000000     0.00000000
 H      1   0   0     1.063328301180     0.00000000     0.00000000
 H      1   2   0     1.066321493051   121.13118607     0.00000000
 H      1   2   3     1.146922558821   130.26814086   179.39826483

---------------------------
INTERNAL COORDINATES (A.U.)
---------------------------
 C      0   0   0     0.000000000000     0.00000000     0.00000000
 H      1   0   0     2.009399279678     0.00000000     0.00000000
 H      1   2   0     2.015055592580   121.13118607     0.00000000
 H      1   2   3     2.167369532989   130.26814086   179.39826483

---------------------
BASIS SET INFORMATION
---------------------
There are 2 groups of distinct atoms

 Group   1 Type C   : 12s8p2d1f contracted to 8s5p2d1f pattern {51111111/41111/11/1}
 Group   2 Type H   : 7s2p contracted to 5s2p pattern {31111/11}

Atom   0C    basis set group =>   1
Atom   1H    basis set group =>   2
Atom   2H    basis set group =>   2
Atom   3H    basis set group =>   2
---------------------------------
AUXILIARY/J BASIS SET INFORMATION
---------------------------------
There are 2 groups of distinct atoms

 Group   1 Type C   : 20s17p16d8f3g contracted to 20s17p16d8f3g pattern {11111111111111111111/11111111111111111/1111111111111111/11111111/111}
 Group   2 Type H   : 17s7p3d contracted to 17s7p3d pattern {11111111111111111/1111111/111}

Atom   0C    basis set group =>   1
Atom   1H    basis set group =>   2
Atom   2H    basis set group =>   2
Atom   3H    basis set group =>   2
---------------------------------
AUXILIARY/C BASIS SET INFORMATION
---------------------------------
There are 2 groups of distinct atoms

 Group   1 Type C   : 20s17p16d8f3g contracted to 20s17p16d8f3g pattern {11111111111111111111/11111111111111111/1111111111111111/11111111/111}
 Group   2 Type H   : 17s7p3d contracted to 17s7p3d pattern {11111111111111111/1111111/111}

Atom   0C    basis set group =>   1
Atom   1H    basis set group =>   2
Atom   2H    basis set group =>   2
Atom   3H    basis set group =>   2
----------------------------------
AUXILIARY/JK BASIS SET INFORMATION
----------------------------------
There are 2 groups of distinct atoms

 Group   1 Type C   : 20s17p16d8f3g contracted to 20s17p16d8f3g pattern {11111111111111111111/11111111111111111/1111111111111111/11111111/111}
 Group   2 Type H   : 17s7p3d contracted to 17s7p3d pattern {11111111111111111/1111111/111}

Atom   0C    basis set group =>   1
Atom   1H    basis set group =>   2
Atom   2H    basis set group =>   2
Atom   3H    basis set group =>   2


           ************************************************************
           *        Program running with 4 parallel MPI-processes     *
           *              working on a common directory               *
           ************************************************************
------------------------------------------------------------------------------
                           ORCA GTO INTEGRAL CALCULATION
                           -- RI-GTO INTEGRALS CHOSEN --
------------------------------------------------------------------------------
------------------------------------------------------------------------------
                   ___                                                        
                  /   \      - P O W E R E D   B Y -                         
                 /     \                                                     
                 |  |  |   _    _      __       _____    __    __             
                 |  |  |  | |  | |    /  \     |  _  \  |  |  /  |          
                  \  \/   | |  | |   /    \    | | | |  |  | /  /          
                 / \  \   | |__| |  /  /\  \   | |_| |  |  |/  /          
                |  |  |   |  __  | /  /__\  \  |    /   |      \           
                |  |  |   | |  | | |   __   |  |    \   |  |\   \          
                \     /   | |  | | |  |  |  |  | |\  \  |  | \   \       
                 \___/    |_|  |_| |__|  |__|  |_| \__\ |__|  \__/        
                                                                              
                      - O R C A' S   B I G   F R I E N D -                    
                                      &                                       
                       - I N T E G R A L  F E E D E R -                       
                                                                              
 v1 FN, 2020, v2 2021                                                         
------------------------------------------------------------------------------


Reading SHARK input file /home/rwth0701/scratch/cs681498/orcajob__30556571-Vi0e/18452.SHARKINP.tmp ... ok
----------------------
SHARK INTEGRAL PACKAGE
----------------------

Number of atoms                             ...      4
Number of basis functions                   ...     73
Number of shells                            ...     37
Maximum angular momentum                    ...      3
Integral batch strategy                     ... SHARK/LIBINT Hybrid
RI-J (if used) integral strategy            ... SPLIT-RIJ (Revised 2003 algorithm where possible)
Printlevel                                  ...      1
Contraction scheme used                     ... SEGMENTED contraction
Coulomb Range Separation                    ... NOT USED
Exchange Range Separation                   ... NOT USED
Finite Nucleus Model                        ... NOT USED
Auxiliary Coulomb fitting basis             ... AVAILABLE
   # of basis functions in Aux-J            ...    393
   # of shells in Aux-J                     ...    145
   Maximum angular momentum in Aux-J        ...      4
Auxiliary J/K fitting basis                 ... AVAILABLE
   # of basis functions in Aux-JK           ...    393
   # of shells in Aux-JK                    ...    145
   Maximum angular momentum in Aux-JK       ...      4
Auxiliary Correlation fitting basis         ... AVAILABLE
   # of basis functions in Aux-C            ...    393
   # of shells in Aux-C                     ...    145
   Maximum angular momentum in Aux-C        ...      4
Auxiliary 'external' fitting basis          ... NOT available
Integral threshold                          ...     1.000000e-10
Primitive cut-off                           ...     1.000000e-11
Primitive pair pre-selection threshold      ...     1.000000e-11

Calculating pre-screening integrals         ... done (  0.0 sec) Dimension = 37
Organizing shell pair data                  ... done (  0.0 sec)
Shell pair information
Total number of shell pairs                 ...       703
Shell pairs after pre-screening             ...       688
Total number of primitive shell pairs       ...      1300
Primitive shell pairs kept                  ...      1183
          la=0 lb=0:    261 shell pairs
          la=1 lb=0:    253 shell pairs
          la=1 lb=1:     66 shell pairs
          la=2 lb=0:     46 shell pairs
          la=2 lb=1:     22 shell pairs
          la=2 lb=2:      3 shell pairs
          la=3 lb=0:     23 shell pairs
          la=3 lb=1:     11 shell pairs
          la=3 lb=2:      2 shell pairs
          la=3 lb=3:      1 shell pairs

Calculating one electron integrals          ... done (  0.0 sec)
Calculating RI/J V-Matrix + Cholesky decomp.... done (  0.1 sec)
Calculating RI/JK V-Matrix + Cholesky decomp... done (  0.1 sec)
Calculating RI/C V-Matrix + Cholesky decomp.... done (  0.1 sec)
Calculating Nuclear repulsion               ... done (  0.0 sec) ENN=      9.575360929842 Eh

SHARK setup successfully completed in   0.6 seconds

Maximum memory used throughout the entire GTOINT-calculation: 13.7 MB


           ************************************************************
           *        Program running with 4 parallel MPI-processes     *
           *              working on a common directory               *
           ************************************************************
-------------------------------------------------------------------------------
                                 ORCA SCF
-------------------------------------------------------------------------------

------------
SCF SETTINGS
------------
Hamiltonian:
 Density Functional     Method          .... DFT(GTOs)
 Exchange Functional    Exchange        .... B88
   X-Alpha parameter    XAlpha          ....  0.666667
   Becke's b parameter  XBeta           ....  0.004200
 Correlation Functional Correlation     .... LYP
 LDA part of GGA corr.  LDAOpt          .... VWN-5
 Gradients option       PostSCFGGA      .... off
 Hybrid DFT is turned on
   Fraction HF Exchange ScalHFX         ....  0.200000
   Scaling of DF-GGA-X  ScalDFX         ....  0.720000
   Scaling of DF-GGA-C  ScalDFC         ....  0.810000
   Scaling of DF-LDA-C  ScalLDAC        ....  1.000000
   Perturbative correction              ....  0.000000
   Density functional embedding theory  .... OFF
   NL short-range parameter             ....  4.800000
 RI-approximation to the Coulomb term is turned on
   Number of AuxJ basis functions       .... 393
   RIJ-COSX (HFX calculated with COS-X)).... on


General Settings:
 Integral files         IntName         .... /home/rwth0701/scratch/cs681498/orcajob__30556571-Vi0e/18452
 Hartree-Fock type      HFTyp           .... UHF
 Total Charge           Charge          ....    0
 Multiplicity           Mult            ....    2
 Number of Electrons    NEL             ....    9
 Basis Dimension        Dim             ....   73
 Nuclear Repulsion      ENuc            ....      9.5753609298 Eh

Convergence Acceleration:
 DIIS                   CNVDIIS         .... on
   Start iteration      DIISMaxIt       ....    12
   Startup error        DIISStart       ....  0.200000
   # of expansion vecs  DIISMaxEq       ....     5
   Bias factor          DIISBfac        ....   1.050
   Max. coefficient     DIISMaxC        ....  10.000
 Trust-Rad. Augm. Hess. CNVTRAH         .... auto
   Auto Start mean grad. ratio tolernc. ....  1.125000
   Auto Start start iteration           ....    20
   Auto Start num. interpolation iter.  ....    10
   Max. Number of Micro iterations      ....    16
   Max. Number of Macro iterations      .... Maxiter - #DIIS iter
   Number of Davidson start vectors     ....     2
   Converg. threshold I  (grad. norm)   ....   5.000e-05
   Converg. threshold II (energy diff.) ....   1.000e-06
   Grad. Scal. Fac. for Micro threshold ....   0.100
   Minimum threshold for Micro iter.    ....   0.010
   NR start threshold (gradient norm)   ....   0.001
   Initial trust radius                 ....   0.400
   Minimum AH scaling param. (alpha)    ....   1.000
   Maximum AH scaling param. (alpha)    .... 1000.000
   Orbital update algorithm             .... Taylor
   White noise on init. David. guess    .... on
   Maximum white noise                  ....   0.010
   Quad. conv. algorithm                .... NR
 SOSCF                  CNVSOSCF        .... off
 Level Shifting         CNVShift        .... on
   Level shift para.    LevelShift      ....    0.2500
   Turn off err/grad.   ShiftErr        ....    0.0010
 Zerner damping         CNVZerner       .... off
 Static damping         CNVDamp         .... on
   Fraction old density DampFac         ....    0.7000
   Max. Damping (<1)    DampMax         ....    0.9800
   Min. Damping (>=0)   DampMin         ....    0.0000
   Turn off err/grad.   DampErr         ....    0.1000
 Fernandez-Rico         CNVRico         .... off

SCF Procedure:
 Maximum # iterations   MaxIter         ....   125
 SCF integral mode      SCFMode         .... Direct
   Integral package                     .... SHARK and LIBINT hybrid scheme
 Reset frequency        DirectResetFreq ....    20
 Integral Threshold     Thresh          ....  1.000e-10 Eh
 Primitive CutOff       TCut            ....  1.000e-11 Eh

Convergence Tolerance:
 Convergence Check Mode ConvCheckMode   .... Total+1el-Energy
 Convergence forced     ConvForced      .... 0
 Energy Change          TolE            ....  1.000e-06 Eh
 1-El. energy change                    ....  1.000e-03 Eh
 DIIS Error             TolErr          ....  1.000e-06


Diagonalization of the overlap matrix:
Smallest eigenvalue                        ... 1.606e-03
Time for diagonalization                   ...    0.001 sec
Threshold for overlap eigenvalues          ... 1.000e-08
Number of eigenvalues below threshold      ... 0
Time for construction of square roots      ...    0.013 sec
Total time needed                          ...    0.015 sec

Time for model grid setup =    0.080 sec

------------------------------
INITIAL GUESS: MODEL POTENTIAL
------------------------------
Loading Hartree-Fock densities                     ... done
Calculating cut-offs                               ... done
Initializing the effective Hamiltonian             ... done
Setting up the integral package (SHARK)            ... done
Starting the Coulomb interaction                   ... done (   0.1 sec)
Reading the grid                                   ... done
Mapping shells                                     ... done
Starting the XC term evaluation                    ... done (   0.0 sec)
  promolecular density results
     # of electrons  =      8.998858623
     EX              =     -5.965673538
     EC              =     -0.259955072
     EX+EC           =     -6.225628610
Transforming the Hamiltonian                       ... done (   0.0 sec)
Diagonalizing the Hamiltonian                      ... done (   0.0 sec)
Back transforming the eigenvectors                 ... done (   0.0 sec)
Now organizing SCF variables                       ... done
                      ------------------
                      INITIAL GUESS DONE (   0.2 sec)
                      ------------------
-------------------
DFT GRID GENERATION
-------------------

General Integration Accuracy     IntAcc      ... 4.388
Radial Grid Type                 RadialGrid  ... OptM3 with GC (2021)
Angular Grid (max. ang.)         AngularGrid ... 4 (Lebedev-302)
Angular grid pruning method      GridPruning ... 4 (adaptive)
Weight generation scheme         WeightScheme... Becke
Basis function cutoff            BFCut       ... 1.0000e-10
Integration weight cutoff        WCut        ... 1.0000e-14
Angular grids for H and He will be reduced by one unit
Partially contracted basis set               ... off
Rotationally invariant grid construction     ... off

Total number of grid points                  ...    17045
Total number of batches                      ...      268
Average number of points per batch           ...       63
Average number of grid points per atom       ...     4261
Time for grid setup =    0.167 sec

--------------------
COSX GRID GENERATION
--------------------

GRIDX 1
-------
General Integration Accuracy     IntAcc      ... 3.816
Radial Grid Type                 RadialGrid  ... OptM3 with GC (2021)
Angular Grid (max. ang.)         AngularGrid ... 1 (Lebedev-50)
Angular grid pruning method      GridPruning ... 4 (adaptive)
Weight generation scheme         WeightScheme... Becke
Basis function cutoff            BFCut       ... 1.0000e-10
Integration weight cutoff        WCut        ... 1.0000e-14
Angular grids for H and He will be reduced by one unit
Partially contracted basis set               ... on
Rotationally invariant grid construction     ... off

Total number of grid points                  ...     2144
Total number of batches                      ...       35
Average number of points per batch           ...       61
Average number of grid points per atom       ...      536
UseSFitting                                  ... on

GRIDX 2
-------
General Integration Accuracy     IntAcc      ... 4.020
Radial Grid Type                 RadialGrid  ... OptM3 with GC (2021)
Angular Grid (max. ang.)         AngularGrid ... 2 (Lebedev-110)
Angular grid pruning method      GridPruning ... 4 (adaptive)
Weight generation scheme         WeightScheme... Becke
Basis function cutoff            BFCut       ... 1.0000e-10
Integration weight cutoff        WCut        ... 1.0000e-14
Angular grids for H and He will be reduced by one unit
Partially contracted basis set               ... on
Rotationally invariant grid construction     ... off

Total number of grid points                  ...     5051
Total number of batches                      ...       81
Average number of points per batch           ...       62
Average number of grid points per atom       ...     1263
UseSFitting                                  ... on

GRIDX 3
-------
General Integration Accuracy     IntAcc      ... 4.338
Radial Grid Type                 RadialGrid  ... OptM3 with GC (2021)
Angular Grid (max. ang.)         AngularGrid ... 3 (Lebedev-194)
Angular grid pruning method      GridPruning ... 4 (adaptive)
Weight generation scheme         WeightScheme... Becke
Basis function cutoff            BFCut       ... 1.0000e-10
Integration weight cutoff        WCut        ... 1.0000e-14
Angular grids for H and He will be reduced by one unit
Partially contracted basis set               ... on
Rotationally invariant grid construction     ... off

Total number of grid points                  ...    11717
Total number of batches                      ...      185
Average number of points per batch           ...       63
Average number of grid points per atom       ...     2929
UseSFitting                                  ... on

Time for X-Grid setup             =    0.292 sec

--------------
SCF ITERATIONS
--------------
ITER       Energy         Delta-E        Max-DP      RMS-DP      [F,P]     Damp
               ***  Starting incremental Fock matrix formation  ***
  0    -39.7816622885   0.000000000000 0.01509529  0.00049641  0.0895045 0.7000
  1    -39.7999952615  -0.018332973020 0.00944222  0.00037083  0.0472979 0.7000
                               ***Turning on DIIS***
  2    -39.8080857655  -0.008090503948 0.01536106  0.00064637  0.0193888 0.0000
  3    -39.8191359194  -0.011050153937 0.00858750  0.00028014  0.0281547 0.0000
  4    -39.8225423230  -0.003406403622 0.00301437  0.00007864  0.0058016 0.0000
  5    -39.8226812632  -0.000138940183 0.00108168  0.00003318  0.0019387 0.0000
  6    -39.8226992237  -0.000017960467 0.00089983  0.00002589  0.0008201 0.0000
               *** Restarting incremental Fock matrix formation ***
                                   *** Resetting DIIS ***
  7    -39.8227107500  -0.000011526306 0.00010569  0.00000332  0.0000997 0.0000
                 **** Energy Check signals convergence ****

               *****************************************************
               *                     SUCCESS                       *
               *           SCF CONVERGED AFTER   8 CYCLES          *
               *****************************************************

Old exchange energy                            =     -1.238441285 Eh
New exchange energy                            =     -1.238442910 Eh
Exchange energy change after final integration =     -0.000001625 Eh
Total energy after final integration           =    -39.822712469 Eh
Final COS-X integration done in                =     0.182 sec

----------------
TOTAL SCF ENERGY
----------------

Total Energy       :          -39.82271247 Eh           -1083.63110 eV

Components:
Nuclear Repulsion  :            9.57536093 Eh             260.55882 eV
Electronic Energy  :          -49.39807340 Eh           -1344.18991 eV
One Electron Energy:          -71.46131399 Eh           -1944.56121 eV
Two Electron Energy:           22.06324059 Eh             600.37130 eV
Max COSX asymmetry :            0.00000007 Eh               0.00000 eV

Virial components:
Potential Energy   :          -79.40277103 Eh           -2160.65925 eV
Kinetic Energy     :           39.58005856 Eh            1077.02815 eV
Virial Ratio       :            2.00613071


DFT components:
N(Alpha)           :        5.000001243570 electrons
N(Beta)            :        4.000001089323 electrons
N(Total)           :        9.000002332893 electrons
E(X)               :       -4.902945900798 Eh       
E(C)               :       -0.309104769947 Eh       
E(XC)              :       -5.212050670745 Eh       
DFET-embed. en.    :        0.000000000000 Eh       

---------------
SCF CONVERGENCE
---------------

  Last Energy change         ...   -9.3718e-08  Tolerance :   1.0000e-06
  Last MAX-Density change    ...    0.0000e+00  Tolerance :   1.0000e-05
  Last RMS-Density change    ...    0.0000e+00  Tolerance :   1.0000e-06
  Last DIIS Error            ...    6.3430e-05  Tolerance :   1.0000e-06

             **** THE GBW FILE WAS UPDATED (/home/rwth0701/scratch/cs681498/orcajob__30556571-Vi0e/18452.gbw) ****
             **** DENSITY /home/rwth0701/scratch/cs681498/orcajob__30556571-Vi0e/18452.scfp WAS UPDATED ****
             **** ENERGY FILE WAS UPDATED (/home/rwth0701/scratch/cs681498/orcajob__30556571-Vi0e/18452.en.tmp) ****
----------------------
UHF SPIN CONTAMINATION
----------------------

Warning: in a DFT calculation there is little theoretical justification to 
         calculate <S**2> as in Hartree-Fock theory. We will do it anyways
         but you should keep in mind that the values have only limited relevance

Expectation value of <S**2>     :     0.753808
Ideal value S*(S+1) for S=0.5   :     0.750000
Deviation                       :     0.003808

             **** THE GBW FILE WAS UPDATED (/home/rwth0701/scratch/cs681498/orcajob__30556571-Vi0e/18452.gbw) ****
             **** DENSITY /home/rwth0701/scratch/cs681498/orcajob__30556571-Vi0e/18452.scfp WAS UPDATED ****
----------------
ORBITAL ENERGIES
----------------
                 SPIN UP ORBITALS
  NO   OCC          E(Eh)            E(eV) 
   0   1.0000     -10.187765      -277.2232 
   1   1.0000      -0.685719       -18.6594 
   2   1.0000      -0.439286       -11.9536 
   3   1.0000      -0.400041       -10.8857 
   4   1.0000      -0.234972        -6.3939 
   5   0.0000       0.000317         0.0086 
   6   0.0000       0.034415         0.9365 
   7   0.0000       0.038746         1.0543 
   8   0.0000       0.047404         1.2899 
   9   0.0000       0.079347         2.1592 
  10   0.0000       0.093392         2.5413 
  11   0.0000       0.099783         2.7152 
  12   0.0000       0.216643         5.8951 
  13   0.0000       0.225700         6.1416 
  14   0.0000       0.246281         6.7017 
  15   0.0000       0.275907         7.5078 
  16   0.0000       0.288533         7.8514 
  17   0.0000       0.324325         8.8253 
  18   0.0000       0.340948         9.2777 
  19   0.0000       0.545454        14.8426 
  20   0.0000       0.569264        15.4905 
  21   0.0000       0.731950        19.9174 
  22   0.0000       0.740066        20.1382 
  23   0.0000       0.768352        20.9079 
  24   0.0000       0.818155        22.2631 
  25   0.0000       0.881992        24.0002 
  26   0.0000       0.907523        24.6949 
  27   0.0000       0.941875        25.6297 
  28   0.0000       0.948846        25.8194 
  29   0.0000       1.047681        28.5088 
  30   0.0000       1.066320        29.0161 
  31   0.0000       1.134127        30.8612 
  32   0.0000       1.162592        31.6357 
  33   0.0000       1.166536        31.7431 
  34   0.0000       1.442612        39.2555 
  35   0.0000       1.448245        39.4088 
  36   0.0000       1.512286        41.1514 
  37   0.0000       1.706147        46.4266 
  38   0.0000       1.729810        47.0705 
  39   0.0000       1.772909        48.2433 
  40   0.0000       2.713890        73.8487 
  41   0.0000       2.739797        74.5537 
  42   0.0000       2.851792        77.6012 
  43   0.0000       2.896147        78.8082 
  44   0.0000       2.951310        80.3092 
  45   0.0000       2.979056        81.0642 
  46   0.0000       2.980959        81.1160 
  47   0.0000       3.143115        85.5285 
  48   0.0000       3.167896        86.2028 
  49   0.0000       3.249359        88.4195 
  50   0.0000       3.265848        88.8682 
  51   0.0000       3.635768        98.9343 
  52   0.0000       3.719097       101.2018 
  53   0.0000       3.795683       103.2858 
  54   0.0000       3.914228       106.5116 
  55   0.0000       3.940303       107.2211 
  56   0.0000       4.066155       110.6457 
  57   0.0000       4.118545       112.0713 
  58   0.0000       4.147534       112.8601 
  59   0.0000       4.160154       113.2036 
  60   0.0000       4.563385       124.1760 
  61   0.0000       5.013835       136.4334 
  62   0.0000       5.365803       146.0109 
  63   0.0000       5.423559       147.5825 
  64   0.0000       5.567636       151.5031 
  65   0.0000       5.992000       163.0506 
  66   0.0000       6.159906       167.6196 
  67   0.0000       7.712801       209.8760 
  68   0.0000      29.053784       790.5937 
  69   0.0000      37.101169      1009.5741 
  70   0.0000      37.210885      1012.5597 
  71   0.0000      37.227519      1013.0123 
  72   0.0000     133.508342      3632.9467 

                 SPIN DOWN ORBITALS
  NO   OCC          E(Eh)            E(eV) 
   0   1.0000     -10.173251      -276.8282 
   1   1.0000      -0.646207       -17.5842 
   2   1.0000      -0.430064       -11.7026 
   3   1.0000      -0.390481       -10.6255 
   4   0.0000      -0.077338        -2.1045 
   5   0.0000       0.003605         0.0981 
   6   0.0000       0.034114         0.9283 
   7   0.0000       0.038366         1.0440 
   8   0.0000       0.060684         1.6513 
   9   0.0000       0.082072         2.2333 
  10   0.0000       0.096169         2.6169 
  11   0.0000       0.101507         2.7621 
  12   0.0000       0.217996         5.9320 
  13   0.0000       0.227427         6.1886 
  14   0.0000       0.263906         7.1812 
  15   0.0000       0.295151         8.0315 
  16   0.0000       0.310388         8.4461 
  17   0.0000       0.329338         8.9617 
  18   0.0000       0.354254         9.6397 
  19   0.0000       0.571575        15.5534 
  20   0.0000       0.596806        16.2399 
  21   0.0000       0.733295        19.9540 
  22   0.0000       0.741726        20.1834 
  23   0.0000       0.792652        21.5692 
  24   0.0000       0.817898        22.2561 
  25   0.0000       0.887682        24.1551 
  26   0.0000       0.913111        24.8470 
  27   0.0000       0.956890        26.0383 
  28   0.0000       0.967035        26.3144 
  29   0.0000       1.073883        29.2218 
  30   0.0000       1.120844        30.4997 
  31   0.0000       1.158104        31.5136 
  32   0.0000       1.175979        32.0000 
  33   0.0000       1.178016        32.0555 
  34   0.0000       1.448605        39.4186 
  35   0.0000       1.469224        39.9796 
  36   0.0000       1.522443        41.4278 
  37   0.0000       1.714029        46.6411 
  38   0.0000       1.737476        47.2791 
  39   0.0000       1.779182        48.4140 
  40   0.0000       2.755019        74.9679 
  41   0.0000       2.780567        75.6631 
  42   0.0000       2.857142        77.7468 
  43   0.0000       2.952748        80.3483 
  44   0.0000       2.956454        80.4492 
  45   0.0000       3.008104        81.8547 
  46   0.0000       3.032376        82.5152 
  47   0.0000       3.194785        86.9345 
  48   0.0000       3.219223        87.5995 
  49   0.0000       3.306800        89.9826 
  50   0.0000       3.322045        90.3974 
  51   0.0000       3.635910        98.9381 
  52   0.0000       3.778750       102.8250 
  53   0.0000       3.795520       103.2813 
  54   0.0000       3.929111       106.9165 
  55   0.0000       3.941110       107.2431 
  56   0.0000       4.081820       111.0720 
  57   0.0000       4.122385       112.1758 
  58   0.0000       4.162170       113.2584 
  59   0.0000       4.172646       113.5435 
  60   0.0000       4.563960       124.1917 
  61   0.0000       5.033234       136.9612 
  62   0.0000       5.366672       146.0346 
  63   0.0000       5.421962       147.5391 
  64   0.0000       5.564217       151.4100 
  65   0.0000       5.994215       163.1109 
  66   0.0000       6.162969       167.7029 
  67   0.0000       7.747905       210.8312 
  68   0.0000      29.080648       791.3247 
  69   0.0000      37.088329      1009.2247 
  70   0.0000      37.199476      1012.2492 
  71   0.0000      37.215378      1012.6819 
  72   0.0000     133.516245      3633.1617 

                    ********************************
                    * MULLIKEN POPULATION ANALYSIS *
                    ********************************

--------------------------------------------
MULLIKEN ATOMIC CHARGES AND SPIN POPULATIONS
--------------------------------------------
   0 C :   -0.430939    1.106875
   1 H :    0.153319   -0.032177
   2 H :    0.137883   -0.034668
   3 H :    0.139736   -0.040030
Sum of atomic charges         :   -0.0000000
Sum of atomic spin populations:    1.0000000

-----------------------------------------------------
MULLIKEN REDUCED ORBITAL CHARGES AND SPIN POPULATIONS
-----------------------------------------------------
CHARGE
  0 C s       :     3.336496  s :     3.336496
      pz      :     0.969039  p :     3.066798
      px      :     1.055329
      py      :     1.042429
      dz2     :     0.005630  d :     0.024656
      dxz     :     0.000116
      dyz     :     0.000242
      dx2y2   :     0.011986
      dxy     :     0.006682
      f0      :     0.000048  f :     0.002989
      f+1     :     0.000667
      f-1     :     0.000704
      f+2     :     0.000025
      f-2     :     0.000040
      f+3     :     0.000840
      f-3     :     0.000665
  1 H s       :     0.817863  s :     0.817863
      pz      :     0.011508  p :     0.028817
      px      :     0.008133
      py      :     0.009176
  2 H s       :     0.834741  s :     0.834741
      pz      :     0.010514  p :     0.027376
      px      :     0.009865
      py      :     0.006997
  3 H s       :     0.835519  s :     0.835519
      pz      :     0.009490  p :     0.024745
      px      :     0.006023
      py      :     0.009232

SPIN
  0 C s       :     0.067921  s :     0.067921
      pz      :     0.960406  p :     1.043281
      px      :     0.037892
      py      :     0.044983
      dz2     :    -0.004608  d :    -0.002997
      dxz     :    -0.000018
      dyz     :    -0.000099
      dx2y2   :     0.001203
      dxy     :     0.000524
      f0      :    -0.000028  f :    -0.001329
      f+1     :    -0.000615
      f-1     :    -0.000609
      f+2     :    -0.000018
      f-2     :    -0.000010
      f+3     :    -0.000026
      f-3     :    -0.000023
  1 H s       :    -0.043535  s :    -0.043535
      pz      :     0.011425  p :     0.011358
      px      :    -0.000108
      py      :     0.000041
  2 H s       :    -0.044441  s :    -0.044441
      pz      :     0.010446  p :     0.009773
      px      :    -0.000142
      py      :    -0.000531
  3 H s       :    -0.049009  s :    -0.049009
      pz      :     0.009413  p :     0.008979
      px      :    -0.000358
      py      :    -0.000076


                     *******************************
                     * LOEWDIN POPULATION ANALYSIS *
                     *******************************

-------------------------------------------
LOEWDIN ATOMIC CHARGES AND SPIN POPULATIONS
-------------------------------------------
   0 C :   -0.159627    0.912685
   1 H :    0.041637    0.033534
   2 H :    0.039651    0.033592
   3 H :    0.078339    0.020189

----------------------------------------------------
LOEWDIN REDUCED ORBITAL CHARGES AND SPIN POPULATIONS
----------------------------------------------------
CHARGE
  0 C s       :     2.889839  s :     2.889839
      pz      :     0.877448  p :     3.171931
      px      :     1.158541
      py      :     1.135943
      dz2     :     0.006984  d :     0.090218
      dxz     :     0.000338
      dyz     :     0.000609
      dx2y2   :     0.050874
      dxy     :     0.031412
      f0      :     0.000288  f :     0.007639
      f+1     :     0.001888
      f-1     :     0.001920
      f+2     :     0.000081
      f-2     :     0.000075
      f+3     :     0.001880
      f-3     :     0.001507
  1 H s       :     0.807129  s :     0.807129
      pz      :     0.044984  p :     0.151234
      px      :     0.051183
      py      :     0.055067
  2 H s       :     0.807767  s :     0.807767
      pz      :     0.044433  p :     0.152582
      px      :     0.072002
      py      :     0.036147
  3 H s       :     0.794585  s :     0.794585
      pz      :     0.035500  p :     0.127076
      px      :     0.027649
      py      :     0.063926

SPIN
  0 C s       :     0.019904  s :     0.019904
      pz      :     0.867744  p :     0.901758
      px      :     0.014811
      py      :     0.019203
      dz2     :    -0.004009  d :    -0.007648
      dxz     :    -0.000037
      dyz     :    -0.000116
      dx2y2   :    -0.002220
      dxy     :    -0.001267
      f0      :     0.000141  f :    -0.001329
      f+1     :    -0.000563
      f-1     :    -0.000560
      f+2     :    -0.000018
      f-2     :    -0.000015
      f+3     :    -0.000168
      f-3     :    -0.000148
  1 H s       :    -0.016912  s :    -0.016912
      pz      :     0.044445  p :     0.050447
      px      :     0.002407
      py      :     0.003595
  2 H s       :    -0.015884  s :    -0.015884
      pz      :     0.044113  p :     0.049476
      px      :     0.004467
      py      :     0.000896
  3 H s       :    -0.020035  s :    -0.020035
      pz      :     0.035083  p :     0.040224
      px      :     0.000397
      py      :     0.004744


                      *****************************
                      * MAYER POPULATION ANALYSIS *
                      *****************************

  NA   - Mulliken gross atomic population
  ZA   - Total nuclear charge
  QA   - Mulliken gross atomic charge
  VA   - Mayer's total valence
  BVA  - Mayer's bonded valence
  FA   - Mayer's free valence

  ATOM       NA         ZA         QA         VA         BVA        FA
  0 C      6.4309     6.0000    -0.4309     3.8746     2.9284     0.9462
  1 H      0.8467     1.0000     0.1533     0.9871     0.9851     0.0019
  2 H      0.8621     1.0000     0.1379     0.9781     0.9762     0.0019
  3 H      0.8603     1.0000     0.1397     0.9829     0.9805     0.0024

  Mayer bond orders larger than 0.100000
B(  0-C ,  1-H ) :   0.9751 B(  0-C ,  2-H ) :   0.9772 B(  0-C ,  3-H ) :   0.9762 


-------
TIMINGS
-------

Total SCF time: 0 days 0 hours 0 min 5 sec 

Total time                  ....       5.824 sec
Sum of individual times     ....       5.158 sec  ( 88.6%)

Fock matrix formation       ....       4.370 sec  ( 75.0%)
  Split-RI-J                ....       0.371 sec  (  8.5% of F)
  Chain of spheres X        ....       0.929 sec  ( 21.3% of F)
  XC integration            ....       1.943 sec  ( 44.5% of F)
    Basis function eval.    ....       0.113 sec  (  5.8% of XC)
    Density eval.           ....       0.122 sec  (  6.3% of XC)
    XC-Functional eval.     ....       0.107 sec  (  5.5% of XC)
    XC-Potential eval.      ....       0.161 sec  (  8.3% of XC)
Diagonalization             ....       0.047 sec  (  0.8%)
Density matrix formation    ....       0.002 sec  (  0.0%)
Population analysis         ....       0.060 sec  (  1.0%)
Initial guess               ....       0.083 sec  (  1.4%)
Orbital Transformation      ....       0.000 sec  (  0.0%)
Orbital Orthonormalization  ....       0.000 sec  (  0.0%)
DIIS solution               ....       0.057 sec  (  1.0%)
Grid generation             ....       0.538 sec  (  9.2%)

Maximum memory used throughout the entire SCF-calculation: 59.0 MB

-------------------------   --------------------
FINAL SINGLE POINT ENERGY       -39.822712468974
-------------------------   --------------------

   --->>> g-tensor requested, so NeedSOC=true

                            ***************************************
                            *     ORCA property calculations      *
                            ***************************************

                                    ---------------------
                                    Active property flags
                                    ---------------------
   (+) Dipole Moment
   (+) g-tensor
   (+) Nuclear properties (Hyperfine,Quadrupole)
   (+) Spin-Orbit Integrals are needed


------------------------------------------------------------------------------
                       ORCA ELECTRIC PROPERTIES CALCULATION
------------------------------------------------------------------------------

Dipole Moment Calculation                       ... on
Quadrupole Moment Calculation                   ... off
Polarizability Calculation                      ... off
GBWName                                         ... /home/rwth0701/scratch/cs681498/orcajob__30556571-Vi0e/18452.gbw
Electron density                                ... /home/rwth0701/scratch/cs681498/orcajob__30556571-Vi0e/18452.scfp
The origin for moment calculation is the CENTER OF MASS  = (-164.718093, -217.716822 -60.576273)

-------------
DIPOLE MOMENT
-------------
                                X             Y             Z
Electronic contribution:      0.10923       0.11427       0.01835
Nuclear contribution   :     -0.13406      -0.10928      -0.02151
                        -----------------------------------------
Total Dipole Moment    :     -0.02483       0.00500      -0.00316
                        -----------------------------------------
Magnitude (a.u.)       :      0.02552
Magnitude (Debye)      :      0.06488



--------------------
Rotational spectrum 
--------------------
 
Rotational constants in cm-1:    10.794147     8.237581     4.672128 
Rotational constants in MHz : 323600.391373 246956.461612 140066.865511 

 Dipole components along the rotational axes: 
x,y,z [a.u.] :    -0.005196    -0.024870    -0.002440 
x,y,z [Debye]:    -0.013206    -0.063215    -0.006202 

 


           ************************************************************
           *        Program running with 4 parallel MPI-processes     *
           *              working on a common directory               *
           ************************************************************
------------------------------------------------------------------------------
                         ORCA SPIN-ORBIT COUPLING CALCULATION
------------------------------------------------------------------------------

GBW file                                    ... /home/rwth0701/scratch/cs681498/orcajob__30556571-Vi0e/18452.gbw
Input density                               ... /home/rwth0701/scratch/cs681498/orcajob__30556571-Vi0e/18452.scfp
Output integrals                            ... /home/rwth0701/scratch/cs681498/orcajob__30556571-Vi0e/18452
Operator type                               ... Mean-field/Effective potential
   One-Electron Terms                       ... 1
   Coulomb Contribution                     ... 3
   Exchange Contribution                    ... 3
   Correlation Contribution                 ... 0
   Maximum number of centers                ... 4
SHARK 2-electron RIJ-SOMF                   ... done (  0.1 sec)
SHARK 1-electron  MaxCenter=4               ... done (  0.0 sec)
SHARK 2-electron DoJ,X=0,1 MaxCenter=1      ... done (  0.1 sec)

Maximum memory used throughout the entire SOC-calculation: 11.3 MB
Total time for SOC:  2.548


           ************************************************************
           *        Program running with 4 parallel MPI-processes     *
           *              working on a common directory               *
           ************************************************************
------------------------------------------------------------------------------
                                ORCA EPR/NMR CALCULATION
------------------------------------------------------------------------------

GBWName                      ... /home/rwth0701/scratch/cs681498/orcajob__30556571-Vi0e/18452.gbw
Electron density             ... /home/rwth0701/scratch/cs681498/orcajob__30556571-Vi0e/18452.scfp
Spin density                 ... /home/rwth0701/scratch/cs681498/orcajob__30556571-Vi0e/18452.scfr
Spin-orbit integrals         ... /home/rwth0701/scratch/cs681498/orcajob__30556571-Vi0e/18452
Treatment of gauge           ... GIAO (approximations 1/2el = 0,0)
Details of the CP(SCF) procedure:
       Solver   = POPLE   
       MaxIter  =    64   
       Tolerance=    1.000e-03
       COSX Grid=     1   
       Op-0     =   0-  4 =>   5- 72
       Op-1     =   0-  3 =>   4- 72
Multiplicity                 ... 2
g-tensor                     ... 1
NMR chemical shifts          ... 0
NMR spin-spin couplings      ... 0
NMR spectrum                 ... 0
Number of nuclei for epr/nmr ... 4
   Nucleus:   1H 
       Hyperfine : Isotope=    1 I=   0.500 P= 533.551
       Quadrupole: Isotope=    2 I=   1.000 Q=   0.003
       Spin-Orbit: Zeff=   1.000
       Nuclear Spin-Spin: Gn=   0.000
       EPRNMR Input: 
       rho(0)=N f(grad)=N a(iso)=Y a(dip)=Y a(orb)=Y sigma(nmr)=N spin-spin(nmr)=all-N,DSO-N,PSO-N,FC-N,SD-N
   Nucleus:   2H 
       Hyperfine : Isotope=    1 I=   0.500 P= 533.551
       Quadrupole: Isotope=    2 I=   1.000 Q=   0.003
       Spin-Orbit: Zeff=   1.000
       Nuclear Spin-Spin: Gn=   0.000
       EPRNMR Input: 
       rho(0)=N f(grad)=N a(iso)=Y a(dip)=Y a(orb)=Y sigma(nmr)=N spin-spin(nmr)=all-N,DSO-N,PSO-N,FC-N,SD-N
   Nucleus:   3H 
       Hyperfine : Isotope=    1 I=   0.500 P= 533.551
       Quadrupole: Isotope=    2 I=   1.000 Q=   0.003
       Spin-Orbit: Zeff=   1.000
       Nuclear Spin-Spin: Gn=   0.000
       EPRNMR Input: 
       rho(0)=N f(grad)=N a(iso)=Y a(dip)=Y a(orb)=Y sigma(nmr)=N spin-spin(nmr)=all-N,DSO-N,PSO-N,FC-N,SD-N
   Nucleus:   0C 
       Hyperfine : Isotope=   13 I=   0.500 P= 134.190
       Quadrupole: Isotope=   13 I=   0.500 Q=   0.000
       Spin-Orbit: Zeff=   3.600
       Nuclear Spin-Spin: Gn=   0.000
       EPRNMR Input: 
       rho(0)=N f(grad)=N a(iso)=Y a(dip)=Y a(orb)=Y sigma(nmr)=N spin-spin(nmr)=all-N,DSO-N,PSO-N,FC-N,SD-N
Forming RHS of the CP-SCF equations         ... 
Calculating right hand sides for GIAO treatment        ... 
  Entering RightHandSide GIAO. ScalHFX=    0.2000 NeedHFX=1
     -> 1-electron GIAO integrals will be done analytically
     -> RIJCOSX used in SCF. Same chosen for GIAO calculation.
     Making grid for GIAO integrations   ...

GRID GIAO
---------

General Integration Accuracy     IntAcc      ... 4.388
Radial Grid Type                 RadialGrid  ... OptM3 with GC (2021)
Angular Grid (max. ang.)         AngularGrid ... 4 (Lebedev-302)
Angular grid pruning method      GridPruning ... 4 (adaptive)
Weight generation scheme         WeightScheme... Becke
Basis function cutoff            BFCut       ... 1.0000e-10
Integration weight cutoff        WCut        ... 1.0000e-14
Angular grids for H and He will be reduced by one unit
Partially contracted basis set               ... off
Rotationally invariant grid construction     ... off

Total number of grid points                  ...    17045
Total number of batches                      ...      268
Average number of points per batch           ...       63
Average number of grid points per atom       ...     4261

  One-electron GIAO integrals (SHARK)     ... done
  Calculating G(B)[P]                     ... (RI-J: SHARK-ok) (COSX-ok) (add-J+K:ok) => dG/dB done
  DFT XC-terms                            ... done
  Extracting occupied and virtual blocks  ... 
  Operator  0  NO=   5 NV=  68 
  Operator  1  NO=   4 NV=  69 
  Transforming and RHS contribution       ... done
  Adding eps_i * S(B)_ai terms            ... done
  Projecting overlap derivatives          ... done
  Building G[dS/dB_ij] (COSX)             ... done
  Transforming to MO basis                ... done
  Summing G[dS/dB_ij] into RHS contribs.  ... done

  GIAO profiling information: 
    Total GIAO time               ...       0.9 sec
       GIAO 1-electron integrals  ...       0.0 sec (  2.3%)
       GIAO G(dS/dB) terms        ...       0.1 sec ( 13.6%)
       GIAO RI-J                  ...       0.1 sec ( 12.9%)
       GIAO COSX                  ...       0.2 sec ( 17.8%)
       GIAO XC-terms              ...       0.3 sec ( 35.1%)

  GIAO right hand side done


------------------------------------------------------------------------------
                           ORCA CP-SCF CALCULATION
------------------------------------------------------------------------------

Input orbitals are from        ... /home/rwth0701/scratch/cs681498/orcajob__30556571-Vi0e/18452.gbw
Input Perturbation             ... /home/rwth0701/scratch/cs681498/orcajob__30556571-Vi0e/18452.pin.tmp
Wavefunction output            ... /home/rwth0701/scratch/cs681498/orcajob__30556571-Vi0e/18452.pout.tmp
Perturbation mode              ... Imaginary perturbation
Solver                         ... POPLE
Max. number of iterations      ... 64
Convergence tolerance          ... 1.000e-03
Integral handling              ... Direct
DFT GridXC                     ... 1
COSX GridX                     ... 1
COSX IntAccX                   ... 3.067
COSX Algorithm                 ... Auto
Number of perturbations        ... 3
Number of operators            ... 2
Orbital ranges used for CP-SCF:
 Operator 0:  Orbitals   0...  4  to   5... 72
 Operator 1:  Orbitals   0...  3  to   4... 72
Variables per perturbation     ... 616
DFT calculation                         ... on
XC functional terms                     ... off
Hybrid DFT                              ... on
   Exchange mixing (SCF)                ...  0.200
   Exchange mixing (CP-SCF)             ...  0.200
   GGA exch. scaling(SCF)               ...  0.720
   GGA exch. scaling (CP-SCF)           ...  0.720
   GGA corr. scaling (SCF)              ...  0.810
   GGA corr. scaling (CP-SCF)           ...  0.810

CP-SCF GRID
-----------

General Integration Accuracy     IntAcc      ... 3.467
Radial Grid Type                 RadialGrid  ... OptM3 with GC (2021)
Angular Grid (max. ang.)         AngularGrid ... 1 (Lebedev-50)
Angular grid pruning method      GridPruning ... 4 (adaptive)
Weight generation scheme         WeightScheme... Becke
Basis function cutoff            BFCut       ... 1.0000e-10
Integration weight cutoff        WCut        ... 1.0000e-14
Angular grids for H and He will be reduced by one unit
Partially contracted basis set               ... off
Rotationally invariant grid construction     ... off

Total number of grid points                  ...     2341
Total number of batches                      ...       38
Average number of points per batch           ...       61
Average number of grid points per atom       ...      585

CP-SCF GRIDX
------------

General Integration Accuracy     IntAcc      ... 3.067
Radial Grid Type                 RadialGrid  ... OptM3 with GC (2021)
Angular Grid (max. ang.)         AngularGrid ... 1 (Lebedev-50)
Angular grid pruning method      GridPruning ... 4 (adaptive)
Weight generation scheme         WeightScheme... Becke
Basis function cutoff            BFCut       ... 1.0000e-10
Integration weight cutoff        WCut        ... 1.0000e-14
Angular grids for H and He will be reduced by one unit
Partially contracted basis set               ... on
Rotationally invariant grid construction     ... off

Total number of grid points                  ...     1073
Total number of batches                      ...       20
Average number of points per batch           ...       53
Average number of grid points per atom       ...      268

Memory available               ... 1014.6 MB
Memory needed per perturbation ...   0.4 MB
Perturbations treated per batch... 3
Number of batches              ... 1
     CP-SCF ITERATION   0:   1.2000e+01 (   0.1 sec   0/  3 done)
     CP-SCF ITERATION   1:   1.0312e-01 (   0.1 sec   0/  3 done)
     CP-SCF ITERATION   2:   4.0413e-03 (   0.1 sec   0/  3 done)
     CP-SCF ITERATION   3:   2.6132e-04 (   0.1 sec   3/  3 done)
                    *** THE CP-SCF HAS CONVERGED ***

Forming final perturbed densities           ... done
Transforming perturbed density to AO basis  ... done

Magnetic field perturbation calculated in  1.388 sec
GIAO: Diamagnetic terms      (analytic)     (SHARK) ... done
GIAO: 1el-Paramagnetic terms (analytic)     (SHARK) ... done

-------------------
ELECTRONIC G-MATRIX
-------------------

 The g-matrix: 
              2.0028775    0.0000197    0.0000284
              0.0000095    2.0029179    0.0000572
              0.0000262    0.0000545    2.0022409

 gel          2.0023193    2.0023193    2.0023193
 gRMC        -0.0001273   -0.0001273   -0.0001273
 gDSO(tot)    0.0000344    0.0000708    0.0000711
 gPSO(tot)    0.0000089    0.0006102    0.0006650
             ----------   ----------   ----------
 g(tot)       2.0022353    2.0028729    2.0029281 iso=  2.0026788
 Delta-g     -0.0000840    0.0005536    0.0006088 iso=  0.0003595
 Orientation: 
  X          -0.0405088   -0.9464423   -0.3203216
  Y          -0.0805950    0.3226352   -0.9430859
  Z           0.9959234   -0.0123869   -0.0893481

Notes:  (1) The g-matrix conforms to the "BgS" spin Hamiltonian convention. 
        (2) The principal values are square roots of the eigenvalues of g*gT.
        (3) Orientations are eigenvectors of g*gT written as column vectors.
        (4) Individual contributions are projections of the full matrices onto the eigenvectors of g*gT.
        (5) Tensor is right-handed.


-----------------------------------------
ELECTRIC AND MAGNETIC HYPERFINE STRUCTURE
-----------------------------------------

 -----------------------------------------------------------
 Nucleus   1H : A:ISTP=    1 I=  0.5 P=533.5514 MHz/au**3
                Q:ISTP=    2 I=  1.0 Q=  0.0029 barn     
 -----------------------------------------------------------
 Solving for nuclear perturbation:
Forming RHS of the CP-SCF equations         ... 
Calc. nucleus orbit integrals (SHARK)       ... done

------------------------------------------------------------------------------
                           ORCA CP-SCF CALCULATION
------------------------------------------------------------------------------

Input orbitals are from        ... /home/rwth0701/scratch/cs681498/orcajob__30556571-Vi0e/18452.gbw
Input Perturbation             ... /home/rwth0701/scratch/cs681498/orcajob__30556571-Vi0e/18452.pin.tmp
Wavefunction output            ... /home/rwth0701/scratch/cs681498/orcajob__30556571-Vi0e/18452.pout.tmp
Perturbation mode              ... Imaginary perturbation
Solver                         ... POPLE
Max. number of iterations      ... 64
Convergence tolerance          ... 1.000e-03
Integral handling              ... Direct
DFT GridXC                     ... 1
COSX GridX                     ... 1
COSX IntAccX                   ... 3.067
COSX Algorithm                 ... Auto
Number of perturbations        ... 3
Number of operators            ... 2
Orbital ranges used for CP-SCF:
 Operator 0:  Orbitals   0...  4  to   5... 72
 Operator 1:  Orbitals   0...  3  to   4... 72
Variables per perturbation     ... 616
DFT calculation                         ... on
XC functional terms                     ... off
Hybrid DFT                              ... on
   Exchange mixing (SCF)                ...  0.200
   Exchange mixing (CP-SCF)             ...  0.200
   GGA exch. scaling(SCF)               ...  0.720
   GGA exch. scaling (CP-SCF)           ...  0.720
   GGA corr. scaling (SCF)              ...  0.810
   GGA corr. scaling (CP-SCF)           ...  0.810

CP-SCF GRID
-----------

General Integration Accuracy     IntAcc      ... 3.467
Radial Grid Type                 RadialGrid  ... OptM3 with GC (2021)
Angular Grid (max. ang.)         AngularGrid ... 1 (Lebedev-50)
Angular grid pruning method      GridPruning ... 4 (adaptive)
Weight generation scheme         WeightScheme... Becke
Basis function cutoff            BFCut       ... 1.0000e-10
Integration weight cutoff        WCut        ... 1.0000e-14
Angular grids for H and He will be reduced by one unit
Partially contracted basis set               ... off
Rotationally invariant grid construction     ... off

Total number of grid points                  ...     2341
Total number of batches                      ...       38
Average number of points per batch           ...       61
Average number of grid points per atom       ...      585

CP-SCF GRIDX
------------

General Integration Accuracy     IntAcc      ... 3.067
Radial Grid Type                 RadialGrid  ... OptM3 with GC (2021)
Angular Grid (max. ang.)         AngularGrid ... 1 (Lebedev-50)
Angular grid pruning method      GridPruning ... 4 (adaptive)
Weight generation scheme         WeightScheme... Becke
Basis function cutoff            BFCut       ... 1.0000e-10
Integration weight cutoff        WCut        ... 1.0000e-14
Angular grids for H and He will be reduced by one unit
Partially contracted basis set               ... on
Rotationally invariant grid construction     ... off

Total number of grid points                  ...     1073
Total number of batches                      ...       20
Average number of points per batch           ...       53
Average number of grid points per atom       ...      268

Memory available               ... 968.0 MB
Memory needed per perturbation ...   0.4 MB
Perturbations treated per batch... 3
Number of batches              ... 1
     CP-SCF ITERATION   0:   6.8241e-02 (   0.1 sec   0/  3 done)
     CP-SCF ITERATION   1:   2.9856e-03 (   0.1 sec   1/  3 done)
     CP-SCF ITERATION   2:   2.6308e-04 (   0.1 sec   3/  3 done)
                    *** THE CP-SCF HAS CONVERGED ***

Forming final perturbed densities           ... done
Transforming perturbed density to AO basis  ... done

 Raw HFC matrix (all values in MHz): 
 -----------------------------------
               -73.6741              39.6584               2.8015
                39.6597             -63.4918               1.8549
                 2.8016               1.8549             -65.2442

 A(FC)         -67.4840             -67.4840             -67.4840
 A(SD)          39.1587               1.9734             -41.1321
 A(ORB+DIA)      0.0118              -0.0006               0.0309    A(PC) =   0.0140
 A(ORB)          0.0066               0.0006               0.0294    A(PC) =   0.0122
 A(DIA)          0.0052              -0.0012               0.0015    A(PC) =   0.0018
             ----------           ----------           ----------
 A(Tot)        -28.3135             -65.5112            -108.5853    A(iso)=  -67.4700
 Orientation: 
  X           0.6587413           -0.0425548            0.7511651
  Y           0.7472635           -0.0791140           -0.6598017
  Z           0.0875054            0.9959569           -0.0203161

Notes:  (1) The A matrix conforms to the "SAI" spin Hamiltonian convention.
        (2) Tensor is right-handed.

 -----------------------------------------------------------
 Nucleus   2H : A:ISTP=    1 I=  0.5 P=533.5514 MHz/au**3
                Q:ISTP=    2 I=  1.0 Q=  0.0029 barn     
 -----------------------------------------------------------
 Solving for nuclear perturbation:
Forming RHS of the CP-SCF equations         ... 
Calc. nucleus orbit integrals (SHARK)       ... done

------------------------------------------------------------------------------
                           ORCA CP-SCF CALCULATION
------------------------------------------------------------------------------

Input orbitals are from        ... /home/rwth0701/scratch/cs681498/orcajob__30556571-Vi0e/18452.gbw
Input Perturbation             ... /home/rwth0701/scratch/cs681498/orcajob__30556571-Vi0e/18452.pin.tmp
Wavefunction output            ... /home/rwth0701/scratch/cs681498/orcajob__30556571-Vi0e/18452.pout.tmp
Perturbation mode              ... Imaginary perturbation
Solver                         ... POPLE
Max. number of iterations      ... 64
Convergence tolerance          ... 1.000e-03
Integral handling              ... Direct
DFT GridXC                     ... 1
COSX GridX                     ... 1
COSX IntAccX                   ... 3.067
COSX Algorithm                 ... Auto
Number of perturbations        ... 3
Number of operators            ... 2
Orbital ranges used for CP-SCF:
 Operator 0:  Orbitals   0...  4  to   5... 72
 Operator 1:  Orbitals   0...  3  to   4... 72
Variables per perturbation     ... 616
DFT calculation                         ... on
XC functional terms                     ... off
Hybrid DFT                              ... on
   Exchange mixing (SCF)                ...  0.200
   Exchange mixing (CP-SCF)             ...  0.200
   GGA exch. scaling(SCF)               ...  0.720
   GGA exch. scaling (CP-SCF)           ...  0.720
   GGA corr. scaling (SCF)              ...  0.810
   GGA corr. scaling (CP-SCF)           ...  0.810

CP-SCF GRID
-----------

General Integration Accuracy     IntAcc      ... 3.467
Radial Grid Type                 RadialGrid  ... OptM3 with GC (2021)
Angular Grid (max. ang.)         AngularGrid ... 1 (Lebedev-50)
Angular grid pruning method      GridPruning ... 4 (adaptive)
Weight generation scheme         WeightScheme... Becke
Basis function cutoff            BFCut       ... 1.0000e-10
Integration weight cutoff        WCut        ... 1.0000e-14
Angular grids for H and He will be reduced by one unit
Partially contracted basis set               ... off
Rotationally invariant grid construction     ... off

Total number of grid points                  ...     2341
Total number of batches                      ...       38
Average number of points per batch           ...       61
Average number of grid points per atom       ...      585

CP-SCF GRIDX
------------

General Integration Accuracy     IntAcc      ... 3.067
Radial Grid Type                 RadialGrid  ... OptM3 with GC (2021)
Angular Grid (max. ang.)         AngularGrid ... 1 (Lebedev-50)
Angular grid pruning method      GridPruning ... 4 (adaptive)
Weight generation scheme         WeightScheme... Becke
Basis function cutoff            BFCut       ... 1.0000e-10
Integration weight cutoff        WCut        ... 1.0000e-14
Angular grids for H and He will be reduced by one unit
Partially contracted basis set               ... on
Rotationally invariant grid construction     ... off

Total number of grid points                  ...     1073
Total number of batches                      ...       20
Average number of points per batch           ...       53
Average number of grid points per atom       ...      268

Memory available               ... 967.8 MB
Memory needed per perturbation ...   0.4 MB
Perturbations treated per batch... 3
Number of batches              ... 1
     CP-SCF ITERATION   0:   6.7186e-02 (   0.1 sec   0/  3 done)
     CP-SCF ITERATION   1:   2.3799e-03 (   0.1 sec   1/  3 done)
     CP-SCF ITERATION   2:   1.8692e-04 (   0.1 sec   3/  3 done)
                    *** THE CP-SCF HAS CONVERGED ***

Forming final perturbed densities           ... done
Transforming perturbed density to AO basis  ... done

 Raw HFC matrix (all values in MHz): 
 -----------------------------------
               -25.8492             -13.7858               0.5541
               -13.7859            -100.7423              -3.9182
                 0.5542              -3.9182             -60.8483

 A(FC)         -62.4946             -62.4946             -62.4946
 A(SD)          39.1309               1.9376             -41.0685
 A(ORB+DIA)      0.0123              -0.0006               0.0324    A(PC) =   0.0147
 A(ORB)          0.0071               0.0005               0.0309    A(PC) =   0.0129
 A(DIA)          0.0051              -0.0012               0.0015    A(PC) =   0.0018
             ----------           ----------           ----------
 A(Tot)        -23.3514             -60.5577            -103.5307    A(iso)=  -62.4799
 Orientation: 
  X           0.9836753            0.0479224            0.1734540
  Y          -0.1768967            0.0806357            0.9809207
  Z           0.0330215           -0.9955909            0.0877966

Notes:  (1) The A matrix conforms to the "SAI" spin Hamiltonian convention.
        (2) Tensor is right-handed.

 -----------------------------------------------------------
 Nucleus   3H : A:ISTP=    1 I=  0.5 P=533.5514 MHz/au**3
                Q:ISTP=    2 I=  1.0 Q=  0.0029 barn     
 -----------------------------------------------------------
 Solving for nuclear perturbation:
Forming RHS of the CP-SCF equations         ... 
Calc. nucleus orbit integrals (SHARK)       ... done

------------------------------------------------------------------------------
                           ORCA CP-SCF CALCULATION
------------------------------------------------------------------------------

Input orbitals are from        ... /home/rwth0701/scratch/cs681498/orcajob__30556571-Vi0e/18452.gbw
Input Perturbation             ... /home/rwth0701/scratch/cs681498/orcajob__30556571-Vi0e/18452.pin.tmp
Wavefunction output            ... /home/rwth0701/scratch/cs681498/orcajob__30556571-Vi0e/18452.pout.tmp
Perturbation mode              ... Imaginary perturbation
Solver                         ... POPLE
Max. number of iterations      ... 64
Convergence tolerance          ... 1.000e-03
Integral handling              ... Direct
DFT GridXC                     ... 1
COSX GridX                     ... 1
COSX IntAccX                   ... 3.067
COSX Algorithm                 ... Auto
Number of perturbations        ... 3
Number of operators            ... 2
Orbital ranges used for CP-SCF:
 Operator 0:  Orbitals   0...  4  to   5... 72
 Operator 1:  Orbitals   0...  3  to   4... 72
Variables per perturbation     ... 616
DFT calculation                         ... on
XC functional terms                     ... off
Hybrid DFT                              ... on
   Exchange mixing (SCF)                ...  0.200
   Exchange mixing (CP-SCF)             ...  0.200
   GGA exch. scaling(SCF)               ...  0.720
   GGA exch. scaling (CP-SCF)           ...  0.720
   GGA corr. scaling (SCF)              ...  0.810
   GGA corr. scaling (CP-SCF)           ...  0.810

CP-SCF GRID
-----------

General Integration Accuracy     IntAcc      ... 3.467
Radial Grid Type                 RadialGrid  ... OptM3 with GC (2021)
Angular Grid (max. ang.)         AngularGrid ... 1 (Lebedev-50)
Angular grid pruning method      GridPruning ... 4 (adaptive)
Weight generation scheme         WeightScheme... Becke
Basis function cutoff            BFCut       ... 1.0000e-10
Integration weight cutoff        WCut        ... 1.0000e-14
Angular grids for H and He will be reduced by one unit
Partially contracted basis set               ... off
Rotationally invariant grid construction     ... off

Total number of grid points                  ...     2341
Total number of batches                      ...       38
Average number of points per batch           ...       61
Average number of grid points per atom       ...      585

CP-SCF GRIDX
------------

General Integration Accuracy     IntAcc      ... 3.067
Radial Grid Type                 RadialGrid  ... OptM3 with GC (2021)
Angular Grid (max. ang.)         AngularGrid ... 1 (Lebedev-50)
Angular grid pruning method      GridPruning ... 4 (adaptive)
Weight generation scheme         WeightScheme... Becke
Basis function cutoff            BFCut       ... 1.0000e-10
Integration weight cutoff        WCut        ... 1.0000e-14
Angular grids for H and He will be reduced by one unit
Partially contracted basis set               ... on
Rotationally invariant grid construction     ... off

Total number of grid points                  ...     1073
Total number of batches                      ...       20
Average number of points per batch           ...       53
Average number of grid points per atom       ...      268

Memory available               ... 967.7 MB
Memory needed per perturbation ...   0.4 MB
Perturbations treated per batch... 3
Number of batches              ... 1
     CP-SCF ITERATION   0:   5.7104e-02 (   0.1 sec   0/  3 done)
     CP-SCF ITERATION   1:   2.2372e-03 (   0.1 sec   1/  3 done)
     CP-SCF ITERATION   2:   1.6307e-04 (   0.1 sec   3/  3 done)
                    *** THE CP-SCF HAS CONVERGED ***

Forming final perturbed densities           ... done
Transforming perturbed density to AO basis  ... done

 Raw HFC matrix (all values in MHz): 
 -----------------------------------
              -102.2279             -10.2234              -2.2837
               -10.2228             -33.5987               2.6439
                -2.2836               2.6439             -70.0203

 A(FC)         -68.6296             -68.6296             -68.6296
 A(SD)          36.7348              -1.5130             -35.2218
 A(ORB+DIA)      0.0143              -0.0007               0.0283    A(PC) =   0.0140
 A(ORB)          0.0101               0.0003               0.0271    A(PC) =   0.0125
 A(DIA)          0.0042              -0.0011               0.0012    A(PC) =   0.0014
             ----------           ----------           ----------
 A(Tot)        -31.8805             -70.1433            -103.8231    A(iso)=  -68.6156
 Orientation: 
  X          -0.1458396           -0.0439855            0.9883300
  Y           0.9862991           -0.0843234            0.1417871
  Z           0.0771028            0.9954671            0.0556806

Notes:  (1) The A matrix conforms to the "SAI" spin Hamiltonian convention.
        (2) Tensor is right-handed.

 -----------------------------------------------------------
 Nucleus   0C : A:ISTP=   13 I=  0.5 P=134.1903 MHz/au**3
                Q:ISTP=   13 I=  0.5 Q=  0.0000 barn     
 -----------------------------------------------------------
 Solving for nuclear perturbation:
Forming RHS of the CP-SCF equations         ... 
Calc. nucleus orbit integrals (SHARK)       ... done

------------------------------------------------------------------------------
                           ORCA CP-SCF CALCULATION
------------------------------------------------------------------------------

Input orbitals are from        ... /home/rwth0701/scratch/cs681498/orcajob__30556571-Vi0e/18452.gbw
Input Perturbation             ... /home/rwth0701/scratch/cs681498/orcajob__30556571-Vi0e/18452.pin.tmp
Wavefunction output            ... /home/rwth0701/scratch/cs681498/orcajob__30556571-Vi0e/18452.pout.tmp
Perturbation mode              ... Imaginary perturbation
Solver                         ... POPLE
Max. number of iterations      ... 64
Convergence tolerance          ... 1.000e-03
Integral handling              ... Direct
DFT GridXC                     ... 1
COSX GridX                     ... 1
COSX IntAccX                   ... 3.067
COSX Algorithm                 ... Auto
Number of perturbations        ... 3
Number of operators            ... 2
Orbital ranges used for CP-SCF:
 Operator 0:  Orbitals   0...  4  to   5... 72
 Operator 1:  Orbitals   0...  3  to   4... 72
Variables per perturbation     ... 616
DFT calculation                         ... on
XC functional terms                     ... off
Hybrid DFT                              ... on
   Exchange mixing (SCF)                ...  0.200
   Exchange mixing (CP-SCF)             ...  0.200
   GGA exch. scaling(SCF)               ...  0.720
   GGA exch. scaling (CP-SCF)           ...  0.720
   GGA corr. scaling (SCF)              ...  0.810
   GGA corr. scaling (CP-SCF)           ...  0.810

CP-SCF GRID
-----------

General Integration Accuracy     IntAcc      ... 3.467
Radial Grid Type                 RadialGrid  ... OptM3 with GC (2021)
Angular Grid (max. ang.)         AngularGrid ... 1 (Lebedev-50)
Angular grid pruning method      GridPruning ... 4 (adaptive)
Weight generation scheme         WeightScheme... Becke
Basis function cutoff            BFCut       ... 1.0000e-10
Integration weight cutoff        WCut        ... 1.0000e-14
Angular grids for H and He will be reduced by one unit
Partially contracted basis set               ... off
Rotationally invariant grid construction     ... off

Total number of grid points                  ...     2341
Total number of batches                      ...       38
Average number of points per batch           ...       61
Average number of grid points per atom       ...      585

CP-SCF GRIDX
------------

General Integration Accuracy     IntAcc      ... 3.067
Radial Grid Type                 RadialGrid  ... OptM3 with GC (2021)
Angular Grid (max. ang.)         AngularGrid ... 1 (Lebedev-50)
Angular grid pruning method      GridPruning ... 4 (adaptive)
Weight generation scheme         WeightScheme... Becke
Basis function cutoff            BFCut       ... 1.0000e-10
Integration weight cutoff        WCut        ... 1.0000e-14
Angular grids for H and He will be reduced by one unit
Partially contracted basis set               ... on
Rotationally invariant grid construction     ... off

Total number of grid points                  ...     1073
Total number of batches                      ...       20
Average number of points per batch           ...       53
Average number of grid points per atom       ...      268

Memory available               ... 967.6 MB
Memory needed per perturbation ...   0.4 MB
Perturbations treated per batch... 3
Number of batches              ... 1
     CP-SCF ITERATION   0:   1.1265e+00 (   0.1 sec   0/  3 done)
     CP-SCF ITERATION   1:   4.3742e-02 (   0.1 sec   0/  3 done)
     CP-SCF ITERATION   2:   3.2545e-03 (   0.1 sec   0/  3 done)
     CP-SCF ITERATION   3:   2.1086e-04 (   0.1 sec   3/  3 done)
                    *** THE CP-SCF HAS CONVERGED ***

Forming final perturbed densities           ... done
Transforming perturbed density to AO basis  ... done

 Raw HFC matrix (all values in MHz): 
 -----------------------------------
                 4.6741               0.2458             -10.7804
                 0.2459               6.0349             -19.5994
               -10.7804             -19.5994             243.9074

 A(FC)          84.9893              84.9893              84.9893
 A(SD)         -81.1510             -79.8640             161.0150
 A(ORB+DIA)     -0.1706              -0.1683              -0.0128    A(PC) =  -0.1172
 A(ORB)         -0.1710              -0.1686              -0.0127    A(PC) =  -0.1174
 A(DIA)          0.0004               0.0004              -0.0001    A(PC) =   0.0002
             ----------           ----------           ----------
 A(Tot)          3.6677               4.9571             245.9916    A(iso)=   84.8721
 Orientation: 
  X           0.7685631            0.6382200            0.0445635
  Y           0.6339394           -0.7690900            0.0813723
  Z           0.0862068           -0.0342892           -0.9956870

Notes:  (1) The A matrix conforms to the "SAI" spin Hamiltonian convention.
        (2) Tensor is right-handed.


--------------------------------------------------------------------------------
----------------------------------------------------------------------------
                           ORCA EULER ANGLE PROGRAM
----------------------------------------------------------------------------

Only g-tensor available        -->  using g-tensor as reference tensor

Reference tensor               ...  g

g-tensor ordering              ...  |g_min> --> |gx>
                                    |g_mid> --> |gy>
                                    |g_max> --> |gz>

A- and EFG-tensor ordering     ...  the axes |Ax>, |Qx>, |Ay>, etc. are assigned
                                    such that the Euler rotation is minimal. You
                                    can find the respective eigenvalues as Ax,
                                    EFGx, Ay, etc. in the tables below.
                                    The relation of |Ax>, |Ay>,  etc. to Amin, Amid, etc.
                                    (as printed in the ORCA EPR/NMR CALCULATION Output)
                                    is obtained in the detailed printout.

Euler rotation around          ...  z - y - z
   First rotation              -->  by alpha around z
   Second rotation             -->  by beta around y'
   Third rotation              -->  by gamma around z''
   Positive / Negative angle   -->  clockwise / counterclockwise rotation

Plot EFG-tensors                    (-)
Plot HFC-tensors                    (-)
Detailed Printout                   (-)

-------------------------------------------------------------------------
          Euler rotation of hyperfine tensor to g-tensor
-------------------------------------------------------------------------

-------------------------------------------------------------------
 Atom  |   Alpha    Beta    Gamma   |   Ax       Ay       Az 
       |          [degrees]         |           [MHz]         
-------------------------------------------------------------------
  1H      -90.1     22.5     90.0     -65.51  -108.59   -28.31
  2H       89.1      8.7    -89.5     -60.56   -23.35  -103.53
  3H       89.4     27.1    -89.6     -70.14  -103.82   -31.88
  0C      -89.8     31.6     89.6     245.99     4.96     3.67
-------------------------------------------------------------------


Maximum memory used throughout the entire EPRNMR-calculation: 67.6 MB

Timings for individual modules:

Sum of individual times         ...       20.488 sec (=   0.341 min)
GTO integral calculation        ...        3.049 sec (=   0.051 min)  14.9 %
Spin-Orbit-Coupling Matrices    ...        2.539 sec (=   0.042 min)  12.4 %
SCF iterations                  ...        8.097 sec (=   0.135 min)  39.5 %
EPR/NMR calculation             ...        6.803 sec (=   0.113 min)  33.2 %
                             ****ORCA TERMINATED NORMALLY****
TOTAL RUN TIME: 0 days 0 hours 0 minutes 23 seconds 115 msec
