Job execution start: Mon Oct 24 22:42:54 CEST 2022
Shared library path: /home/cs681498/orca:/opt/MPI/openmpi-4.1.1/linux/gcc_4.8.5/lib:/opt/MPI/openmpi-4.1.1/linux/gcc_4.8.5/lib/lib32
Slurm Job ID is: 30556490
Slurm Job name is: 15380
ncm0027

                                 *****************
                                 * O   R   C   A *
                                 *****************

                                            #,                                       
                                            ###                                      
                                            ####                                     
                                            #####                                    
                                            ######                                   
                                           ########,                                 
                                     ,,################,,,,,                         
                               ,,#################################,,                 
                          ,,##########################################,,             
                       ,#########################################, ''#####,          
                    ,#############################################,,   '####,        
                  ,##################################################,,,,####,       
                ,###########''''           ''''###############################       
              ,#####''   ,,,,##########,,,,          '''####'''          '####       
            ,##' ,,,,###########################,,,                        '##       
           ' ,,###''''                  '''############,,,                           
         ,,##''                                '''############,,,,        ,,,,,,###''
      ,#''                                            '''#######################'''  
     '                                                          ''''####''''         
             ,#######,   #######,   ,#######,      ##                                
            ,#'     '#,  ##    ##  ,#'     '#,    #''#        ######   ,####,        
            ##       ##  ##   ,#'  ##            #'  '#       #        #'  '#        
            ##       ##  #######   ##           ,######,      #####,   #    #        
            '#,     ,#'  ##    ##  '#,     ,#' ,#      #,         ##   #,  ,#        
             '#######'   ##     ##  '#######'  #'      '#     #####' # '####'        



                  #######################################################
                  #                        -***-                        #
                  #          Department of theory and spectroscopy      #
                  #    Directorship and core code : Frank Neese         #
                  #        Max Planck Institute fuer Kohlenforschung    #
                  #                Kaiser Wilhelm Platz 1               #
                  #                 D-45470 Muelheim/Ruhr               #
                  #                      Germany                        #
                  #                                                     #
                  #                  All rights reserved                #
                  #                        -***-                        #
                  #######################################################


                         Program Version 5.0.3 -  RELEASE  -


 With contributions from (in alphabetic order):
   Daniel Aravena         : Magnetic Suceptibility
   Michael Atanasov       : Ab Initio Ligand Field Theory (pilot matlab implementation)
   Alexander A. Auer      : GIAO ZORA, VPT2 properties, NMR spectrum
   Ute Becker             : Parallelization
   Giovanni Bistoni       : ED, misc. LED, open-shell LED, HFLD
   Martin Brehm           : Molecular dynamics
   Dmytro Bykov           : SCF Hessian
   Vijay G. Chilkuri      : MRCI spin determinant printing, contributions to CSF-ICE
   Dipayan Datta          : RHF DLPNO-CCSD density
   Achintya Kumar Dutta   : EOM-CC, STEOM-CC
   Dmitry Ganyushin       : Spin-Orbit,Spin-Spin,Magnetic field MRCI
   Miquel Garcia          : C-PCM and meta-GGA Hessian, CC/C-PCM, Gaussian charge scheme
   Yang Guo               : DLPNO-NEVPT2, F12-NEVPT2, CIM, IAO-localization
   Andreas Hansen         : Spin unrestricted coupled pair/coupled cluster methods
   Benjamin Helmich-Paris : MC-RPA, TRAH-SCF, COSX integrals
   Lee Huntington         : MR-EOM, pCC
   Robert Izsak           : Overlap fitted RIJCOSX, COSX-SCS-MP3, EOM
   Marcus Kettner         : VPT2
   Christian Kollmar      : KDIIS, OOCD, Brueckner-CCSD(T), CCSD density, CASPT2, CASPT2-K
   Simone Kossmann        : Meta GGA functionals, TD-DFT gradient, OOMP2, MP2 Hessian
   Martin Krupicka        : Initial AUTO-CI
   Lucas Lang             : DCDCAS
   Marvin Lechner         : AUTO-CI (C++ implementation), FIC-MRCC
   Dagmar Lenk            : GEPOL surface, SMD
   Dimitrios Liakos       : Extrapolation schemes; Compound Job, initial MDCI parallelization
   Dimitrios Manganas     : Further ROCIS development; embedding schemes
   Dimitrios Pantazis     : SARC Basis sets
   Anastasios Papadopoulos: AUTO-CI, single reference methods and gradients
   Taras Petrenko         : DFT Hessian,TD-DFT gradient, ASA, ECA, R-Raman, ABS, FL, XAS/XES, NRVS
   Peter Pinski           : DLPNO-MP2, DLPNO-MP2 Gradient
   Christoph Reimann      : Effective Core Potentials
   Marius Retegan         : Local ZFS, SOC
   Christoph Riplinger    : Optimizer, TS searches, QM/MM, DLPNO-CCSD(T), (RO)-DLPNO pert. Triples
   Tobias Risthaus        : Range-separated hybrids, TD-DFT gradient, RPA, STAB
   Michael Roemelt        : Original ROCIS implementation
   Masaaki Saitow         : Open-shell DLPNO-CCSD energy and density
   Barbara Sandhoefer     : DKH picture change effects
   Avijit Sen             : IP-ROCIS
   Kantharuban Sivalingam : CASSCF convergence, NEVPT2, FIC-MRCI
   Bernardo de Souza      : ESD, SOC TD-DFT
   Georgi Stoychev        : AutoAux, RI-MP2 NMR, DLPNO-MP2 response
   Willem Van den Heuvel  : Paramagnetic NMR
   Boris Wezisla          : Elementary symmetry handling
   Frank Wennmohs         : Technical directorship


 We gratefully acknowledge several colleagues who have allowed us to
 interface, adapt or use parts of their codes:
   Stefan Grimme, W. Hujo, H. Kruse, P. Pracht,  : VdW corrections, initial TS optimization,
                  C. Bannwarth, S. Ehlert          DFT functionals, gCP, sTDA/sTD-DF
   Ed Valeev, F. Pavosevic, A. Kumar             : LibInt (2-el integral package), F12 methods
   Garnet Chan, S. Sharma, J. Yang, R. Olivares  : DMRG
   Ulf Ekstrom                                   : XCFun DFT Library
   Mihaly Kallay                                 : mrcc  (arbitrary order and MRCC methods)
   Jiri Pittner, Ondrej Demel                    : Mk-CCSD
   Frank Weinhold                                : gennbo (NPA and NBO analysis)
   Christopher J. Cramer and Donald G. Truhlar   : smd solvation model
   Lars Goerigk                                  : TD-DFT with DH, B97 family of functionals
   V. Asgeirsson, H. Jonsson                     : NEB implementation
   FAccTs GmbH                                   : IRC, NEB, NEB-TS, DLPNO-Multilevel, CI-OPT
                                                   MM, QMMM, 2- and 3-layer-ONIOM, Crystal-QMMM,
                                                   LR-CPCM, SF, NACMEs, symmetry and pop. for TD-DFT,
                                                   nearIR, NL-DFT gradient (VV10), updates on ESD,
                                                   ML-optimized integration grids
   S Lehtola, MJT Oliveira, MAL Marques          : LibXC Library
   Liviu Ungur et al                             : ANISO software


 Your calculation uses the libint2 library for the computation of 2-el integrals
 For citations please refer to: http://libint.valeyev.net

 Your ORCA version has been built with support for libXC version: 5.1.0
 For citations please refer to: https://tddft.org/programs/libxc/

 This ORCA versions uses:
   CBLAS   interface :  Fast vector & matrix operations
   LAPACKE interface :  Fast linear algebra routines
   SCALAPACK package :  Parallel linear algebra routines
   Shared memory     :  Shared parallel matrices
   BLAS/LAPACK       :  OpenBLAS 0.3.15  USE64BITINT DYNAMIC_ARCH NO_AFFINITY SkylakeX SINGLE_THREADED
        Core in use  :  SkylakeX
   Copyright (c) 2011-2014, The OpenBLAS Project


================================================================================

----- Orbital basis set information -----
Your calculation utilizes the basis: EPR-III
   V. Barone, in Recent Advances in Density Functional Methods, Part 1 (ed. D. P. Chong), World Scientific, Singapore, 1995, p. 287.
   N. Rega, M. Cossi and V. Barone, J. Chem. Phys. 105, 11060 (1996).

----- AuxJ basis set information -----
Your calculation utilizes the AutoAux generation procedure.
  G. L. Stoychev, A. A. Auer, F. Neese, J. Chem. Theory Comput. 13, 554 (2017)

----- AuxC basis set information -----
Your calculation utilizes the AutoAux generation procedure.
  G. L. Stoychev, A. A. Auer, F. Neese, J. Chem. Theory Comput. 13, 554 (2017)

----- AuxJK basis set information -----
Your calculation utilizes the AutoAux generation procedure.
  G. L. Stoychev, A. A. Auer, F. Neese, J. Chem. Theory Comput. 13, 554 (2017)

================================================================================
                                        WARNINGS
                       Please study these warnings very carefully!
================================================================================


WARNING: your system is open-shell and RHF/RKS was chosen
  ===> : WILL SWITCH to UHF/UKS


INFO   : the flag for use of the SHARK integral package has been found!

================================================================================
                                       INPUT FILE
================================================================================
NAME = /home/rwth0701/scratch/cs681498/orcajob__30556490-04D8/15380.inp
|  1> !B3LYP EPR-III Autoaux
|  2> !PAL4
|  3> 
|  4> * xyz 0 2
|  5>  C    -69.2270024327    -93.2627633831    -27.8185587051
|  6>  H    -69.6245591468    -94.2352155247    -27.9187110988
|  7>  H    -68.2175441442    -92.9896058923    -27.7840763699
|  8>  H    -69.7537693549    -92.3900858621    -27.7823907032
|  9> *
| 10> 
| 11> %EPRNMR
| 12>         GTENSOR   TRUE
| 13>         NUCLEI    = ALL H {AISO, ADIP, AORB}
| 14>         NUCLEI    = ALL C {AISO, ADIP, AORB}
| 15> END
| 16> 
| 17> 
| 18>                          ****END OF INPUT****
================================================================================

                       ****************************
                       * Single Point Calculation *
                       ****************************

---------------------------------
CARTESIAN COORDINATES (ANGSTROEM)
---------------------------------
  C    -69.227002  -93.262763  -27.818559
  H    -69.624559  -94.235216  -27.918711
  H    -68.217544  -92.989606  -27.784076
  H    -69.753769  -92.390086  -27.782391

----------------------------
CARTESIAN COORDINATES (A.U.)
----------------------------
  NO LB      ZA    FRAG     MASS         X           Y           Z
   0 C     6.0000    0    12.011  -130.820076  -176.241081  -52.569457
   1 H     1.0000    0     1.008  -131.571349  -178.078750  -52.758718
   2 H     1.0000    0     1.008  -128.912476  -175.724888  -52.504295
   3 H     1.0000    0     1.008  -131.815521  -174.591960  -52.501110

--------------------------------
INTERNAL COORDINATES (ANGSTROEM)
--------------------------------
 C      0   0   0     0.000000000000     0.00000000     0.00000000
 H      1   0   0     1.055341182079     0.00000000     0.00000000
 H      1   2   0     1.046331726768   127.38146222     0.00000000
 H      1   2   3     1.019979200937   126.66949639   176.69101332

---------------------------
INTERNAL COORDINATES (A.U.)
---------------------------
 C      0   0   0     0.000000000000     0.00000000     0.00000000
 H      1   0   0     1.994305811978     0.00000000     0.00000000
 H      1   2   0     1.977280408825   127.38146222     0.00000000
 H      1   2   3     1.927481352067   126.66949639   176.69101332

---------------------
BASIS SET INFORMATION
---------------------
There are 2 groups of distinct atoms

 Group   1 Type C   : 12s8p2d1f contracted to 8s5p2d1f pattern {51111111/41111/11/1}
 Group   2 Type H   : 7s2p contracted to 5s2p pattern {31111/11}

Atom   0C    basis set group =>   1
Atom   1H    basis set group =>   2
Atom   2H    basis set group =>   2
Atom   3H    basis set group =>   2
---------------------------------
AUXILIARY/J BASIS SET INFORMATION
---------------------------------
There are 2 groups of distinct atoms

 Group   1 Type C   : 20s17p16d8f3g contracted to 20s17p16d8f3g pattern {11111111111111111111/11111111111111111/1111111111111111/11111111/111}
 Group   2 Type H   : 17s7p3d contracted to 17s7p3d pattern {11111111111111111/1111111/111}

Atom   0C    basis set group =>   1
Atom   1H    basis set group =>   2
Atom   2H    basis set group =>   2
Atom   3H    basis set group =>   2
---------------------------------
AUXILIARY/C BASIS SET INFORMATION
---------------------------------
There are 2 groups of distinct atoms

 Group   1 Type C   : 20s17p16d8f3g contracted to 20s17p16d8f3g pattern {11111111111111111111/11111111111111111/1111111111111111/11111111/111}
 Group   2 Type H   : 17s7p3d contracted to 17s7p3d pattern {11111111111111111/1111111/111}

Atom   0C    basis set group =>   1
Atom   1H    basis set group =>   2
Atom   2H    basis set group =>   2
Atom   3H    basis set group =>   2
----------------------------------
AUXILIARY/JK BASIS SET INFORMATION
----------------------------------
There are 2 groups of distinct atoms

 Group   1 Type C   : 20s17p16d8f3g contracted to 20s17p16d8f3g pattern {11111111111111111111/11111111111111111/1111111111111111/11111111/111}
 Group   2 Type H   : 17s7p3d contracted to 17s7p3d pattern {11111111111111111/1111111/111}

Atom   0C    basis set group =>   1
Atom   1H    basis set group =>   2
Atom   2H    basis set group =>   2
Atom   3H    basis set group =>   2


           ************************************************************
           *        Program running with 4 parallel MPI-processes     *
           *              working on a common directory               *
           ************************************************************
------------------------------------------------------------------------------
                           ORCA GTO INTEGRAL CALCULATION
                           -- RI-GTO INTEGRALS CHOSEN --
------------------------------------------------------------------------------
------------------------------------------------------------------------------
                   ___                                                        
                  /   \      - P O W E R E D   B Y -                         
                 /     \                                                     
                 |  |  |   _    _      __       _____    __    __             
                 |  |  |  | |  | |    /  \     |  _  \  |  |  /  |          
                  \  \/   | |  | |   /    \    | | | |  |  | /  /          
                 / \  \   | |__| |  /  /\  \   | |_| |  |  |/  /          
                |  |  |   |  __  | /  /__\  \  |    /   |      \           
                |  |  |   | |  | | |   __   |  |    \   |  |\   \          
                \     /   | |  | | |  |  |  |  | |\  \  |  | \   \       
                 \___/    |_|  |_| |__|  |__|  |_| \__\ |__|  \__/        
                                                                              
                      - O R C A' S   B I G   F R I E N D -                    
                                      &                                       
                       - I N T E G R A L  F E E D E R -                       
                                                                              
 v1 FN, 2020, v2 2021                                                         
------------------------------------------------------------------------------


Reading SHARK input file /home/rwth0701/scratch/cs681498/orcajob__30556490-04D8/15380.SHARKINP.tmp ... ok
----------------------
SHARK INTEGRAL PACKAGE
----------------------

Number of atoms                             ...      4
Number of basis functions                   ...     73
Number of shells                            ...     37
Maximum angular momentum                    ...      3
Integral batch strategy                     ... SHARK/LIBINT Hybrid
RI-J (if used) integral strategy            ... SPLIT-RIJ (Revised 2003 algorithm where possible)
Printlevel                                  ...      1
Contraction scheme used                     ... SEGMENTED contraction
Coulomb Range Separation                    ... NOT USED
Exchange Range Separation                   ... NOT USED
Finite Nucleus Model                        ... NOT USED
Auxiliary Coulomb fitting basis             ... AVAILABLE
   # of basis functions in Aux-J            ...    393
   # of shells in Aux-J                     ...    145
   Maximum angular momentum in Aux-J        ...      4
Auxiliary J/K fitting basis                 ... AVAILABLE
   # of basis functions in Aux-JK           ...    393
   # of shells in Aux-JK                    ...    145
   Maximum angular momentum in Aux-JK       ...      4
Auxiliary Correlation fitting basis         ... AVAILABLE
   # of basis functions in Aux-C            ...    393
   # of shells in Aux-C                     ...    145
   Maximum angular momentum in Aux-C        ...      4
Auxiliary 'external' fitting basis          ... NOT available
Integral threshold                          ...     1.000000e-10
Primitive cut-off                           ...     1.000000e-11
Primitive pair pre-selection threshold      ...     1.000000e-11

Calculating pre-screening integrals         ... done (  0.0 sec) Dimension = 37
Organizing shell pair data                  ... done (  0.0 sec)
Shell pair information
Total number of shell pairs                 ...       703
Shell pairs after pre-screening             ...       690
Total number of primitive shell pairs       ...      1300
Primitive shell pairs kept                  ...      1189
          la=0 lb=0:    263 shell pairs
          la=1 lb=0:    253 shell pairs
          la=1 lb=1:     66 shell pairs
          la=2 lb=0:     46 shell pairs
          la=2 lb=1:     22 shell pairs
          la=2 lb=2:      3 shell pairs
          la=3 lb=0:     23 shell pairs
          la=3 lb=1:     11 shell pairs
          la=3 lb=2:      2 shell pairs
          la=3 lb=3:      1 shell pairs

Calculating one electron integrals          ... done (  0.0 sec)
Calculating RI/J V-Matrix + Cholesky decomp.... done (  0.0 sec)
Calculating RI/JK V-Matrix + Cholesky decomp... done (  0.0 sec)
Calculating RI/C V-Matrix + Cholesky decomp.... done (  0.0 sec)
Calculating Nuclear repulsion               ... done (  0.0 sec) ENN=     10.043008192260 Eh

SHARK setup successfully completed in   0.4 seconds

Maximum memory used throughout the entire GTOINT-calculation: 13.7 MB


           ************************************************************
           *        Program running with 4 parallel MPI-processes     *
           *              working on a common directory               *
           ************************************************************
-------------------------------------------------------------------------------
                                 ORCA SCF
-------------------------------------------------------------------------------

------------
SCF SETTINGS
------------
Hamiltonian:
 Density Functional     Method          .... DFT(GTOs)
 Exchange Functional    Exchange        .... B88
   X-Alpha parameter    XAlpha          ....  0.666667
   Becke's b parameter  XBeta           ....  0.004200
 Correlation Functional Correlation     .... LYP
 LDA part of GGA corr.  LDAOpt          .... VWN-5
 Gradients option       PostSCFGGA      .... off
 Hybrid DFT is turned on
   Fraction HF Exchange ScalHFX         ....  0.200000
   Scaling of DF-GGA-X  ScalDFX         ....  0.720000
   Scaling of DF-GGA-C  ScalDFC         ....  0.810000
   Scaling of DF-LDA-C  ScalLDAC        ....  1.000000
   Perturbative correction              ....  0.000000
   Density functional embedding theory  .... OFF
   NL short-range parameter             ....  4.800000
 RI-approximation to the Coulomb term is turned on
   Number of AuxJ basis functions       .... 393
   RIJ-COSX (HFX calculated with COS-X)).... on


General Settings:
 Integral files         IntName         .... /home/rwth0701/scratch/cs681498/orcajob__30556490-04D8/15380
 Hartree-Fock type      HFTyp           .... UHF
 Total Charge           Charge          ....    0
 Multiplicity           Mult            ....    2
 Number of Electrons    NEL             ....    9
 Basis Dimension        Dim             ....   73
 Nuclear Repulsion      ENuc            ....     10.0430081923 Eh

Convergence Acceleration:
 DIIS                   CNVDIIS         .... on
   Start iteration      DIISMaxIt       ....    12
   Startup error        DIISStart       ....  0.200000
   # of expansion vecs  DIISMaxEq       ....     5
   Bias factor          DIISBfac        ....   1.050
   Max. coefficient     DIISMaxC        ....  10.000
 Trust-Rad. Augm. Hess. CNVTRAH         .... auto
   Auto Start mean grad. ratio tolernc. ....  1.125000
   Auto Start start iteration           ....    20
   Auto Start num. interpolation iter.  ....    10
   Max. Number of Micro iterations      ....    16
   Max. Number of Macro iterations      .... Maxiter - #DIIS iter
   Number of Davidson start vectors     ....     2
   Converg. threshold I  (grad. norm)   ....   5.000e-05
   Converg. threshold II (energy diff.) ....   1.000e-06
   Grad. Scal. Fac. for Micro threshold ....   0.100
   Minimum threshold for Micro iter.    ....   0.010
   NR start threshold (gradient norm)   ....   0.001
   Initial trust radius                 ....   0.400
   Minimum AH scaling param. (alpha)    ....   1.000
   Maximum AH scaling param. (alpha)    .... 1000.000
   Orbital update algorithm             .... Taylor
   White noise on init. David. guess    .... on
   Maximum white noise                  ....   0.010
   Quad. conv. algorithm                .... NR
 SOSCF                  CNVSOSCF        .... off
 Level Shifting         CNVShift        .... on
   Level shift para.    LevelShift      ....    0.2500
   Turn off err/grad.   ShiftErr        ....    0.0010
 Zerner damping         CNVZerner       .... off
 Static damping         CNVDamp         .... on
   Fraction old density DampFac         ....    0.7000
   Max. Damping (<1)    DampMax         ....    0.9800
   Min. Damping (>=0)   DampMin         ....    0.0000
   Turn off err/grad.   DampErr         ....    0.1000
 Fernandez-Rico         CNVRico         .... off

SCF Procedure:
 Maximum # iterations   MaxIter         ....   125
 SCF integral mode      SCFMode         .... Direct
   Integral package                     .... SHARK and LIBINT hybrid scheme
 Reset frequency        DirectResetFreq ....    20
 Integral Threshold     Thresh          ....  1.000e-10 Eh
 Primitive CutOff       TCut            ....  1.000e-11 Eh

Convergence Tolerance:
 Convergence Check Mode ConvCheckMode   .... Total+1el-Energy
 Convergence forced     ConvForced      .... 0
 Energy Change          TolE            ....  1.000e-06 Eh
 1-El. energy change                    ....  1.000e-03 Eh
 DIIS Error             TolErr          ....  1.000e-06


Diagonalization of the overlap matrix:
Smallest eigenvalue                        ... 1.367e-03
Time for diagonalization                   ...    0.001 sec
Threshold for overlap eigenvalues          ... 1.000e-08
Number of eigenvalues below threshold      ... 0
Time for construction of square roots      ...    0.009 sec
Total time needed                          ...    0.010 sec

Time for model grid setup =    0.043 sec

------------------------------
INITIAL GUESS: MODEL POTENTIAL
------------------------------
Loading Hartree-Fock densities                     ... done
Calculating cut-offs                               ... done
Initializing the effective Hamiltonian             ... done
Setting up the integral package (SHARK)            ... done
Starting the Coulomb interaction                   ... done (   0.0 sec)
Reading the grid                                   ... done
Mapping shells                                     ... done
Starting the XC term evaluation                    ... done (   0.0 sec)
  promolecular density results
     # of electrons  =      8.998867012
     EX              =     -5.990046911
     EC              =     -0.261806107
     EX+EC           =     -6.251853018
Transforming the Hamiltonian                       ... done (   0.0 sec)
Diagonalizing the Hamiltonian                      ... done (   0.0 sec)
Back transforming the eigenvectors                 ... done (   0.0 sec)
Now organizing SCF variables                       ... done
                      ------------------
                      INITIAL GUESS DONE (   0.1 sec)
                      ------------------
-------------------
DFT GRID GENERATION
-------------------

General Integration Accuracy     IntAcc      ... 4.388
Radial Grid Type                 RadialGrid  ... OptM3 with GC (2021)
Angular Grid (max. ang.)         AngularGrid ... 4 (Lebedev-302)
Angular grid pruning method      GridPruning ... 4 (adaptive)
Weight generation scheme         WeightScheme... Becke
Basis function cutoff            BFCut       ... 1.0000e-10
Integration weight cutoff        WCut        ... 1.0000e-14
Angular grids for H and He will be reduced by one unit
Partially contracted basis set               ... off
Rotationally invariant grid construction     ... off

Total number of grid points                  ...    17026
Total number of batches                      ...      268
Average number of points per batch           ...       63
Average number of grid points per atom       ...     4256
Time for grid setup =    0.111 sec

--------------------
COSX GRID GENERATION
--------------------

GRIDX 1
-------
General Integration Accuracy     IntAcc      ... 3.816
Radial Grid Type                 RadialGrid  ... OptM3 with GC (2021)
Angular Grid (max. ang.)         AngularGrid ... 1 (Lebedev-50)
Angular grid pruning method      GridPruning ... 4 (adaptive)
Weight generation scheme         WeightScheme... Becke
Basis function cutoff            BFCut       ... 1.0000e-10
Integration weight cutoff        WCut        ... 1.0000e-14
Angular grids for H and He will be reduced by one unit
Partially contracted basis set               ... on
Rotationally invariant grid construction     ... off

Total number of grid points                  ...     2146
Total number of batches                      ...       35
Average number of points per batch           ...       61
Average number of grid points per atom       ...      536
UseSFitting                                  ... on

GRIDX 2
-------
General Integration Accuracy     IntAcc      ... 4.020
Radial Grid Type                 RadialGrid  ... OptM3 with GC (2021)
Angular Grid (max. ang.)         AngularGrid ... 2 (Lebedev-110)
Angular grid pruning method      GridPruning ... 4 (adaptive)
Weight generation scheme         WeightScheme... Becke
Basis function cutoff            BFCut       ... 1.0000e-10
Integration weight cutoff        WCut        ... 1.0000e-14
Angular grids for H and He will be reduced by one unit
Partially contracted basis set               ... on
Rotationally invariant grid construction     ... off

Total number of grid points                  ...     5046
Total number of batches                      ...       81
Average number of points per batch           ...       62
Average number of grid points per atom       ...     1262
UseSFitting                                  ... on

GRIDX 3
-------
General Integration Accuracy     IntAcc      ... 4.338
Radial Grid Type                 RadialGrid  ... OptM3 with GC (2021)
Angular Grid (max. ang.)         AngularGrid ... 3 (Lebedev-194)
Angular grid pruning method      GridPruning ... 4 (adaptive)
Weight generation scheme         WeightScheme... Becke
Basis function cutoff            BFCut       ... 1.0000e-10
Integration weight cutoff        WCut        ... 1.0000e-14
Angular grids for H and He will be reduced by one unit
Partially contracted basis set               ... on
Rotationally invariant grid construction     ... off

Total number of grid points                  ...    11716
Total number of batches                      ...      185
Average number of points per batch           ...       63
Average number of grid points per atom       ...     2929
UseSFitting                                  ... on

Time for X-Grid setup             =    0.188 sec

--------------
SCF ITERATIONS
--------------
ITER       Energy         Delta-E        Max-DP      RMS-DP      [F,P]     Damp
               ***  Starting incremental Fock matrix formation  ***
  0    -39.7703081199   0.000000000000 0.01697571  0.00054034  0.1017194 0.7000
  1    -39.7925795250  -0.022271405106 0.01066279  0.00040098  0.0540558 0.7000
                               ***Turning on DIIS***
  2    -39.8026092563  -0.010029731247 0.01731322  0.00070122  0.0224133 0.0000
  3    -39.8163504785  -0.013741222196 0.00929429  0.00029856  0.0304203 0.0000
  4    -39.8203413802  -0.003990901711 0.00323348  0.00008320  0.0062756 0.0000
  5    -39.8205055699  -0.000164189740 0.00113100  0.00003295  0.0020310 0.0000
  6    -39.8205229043  -0.000017334365 0.00089871  0.00002407  0.0008315 0.0000
               *** Restarting incremental Fock matrix formation ***
                                   *** Resetting DIIS ***
  7    -39.8205186762   0.000004228067 0.00007383  0.00000312  0.0000914 0.0000
                 **** Energy Check signals convergence ****

               *****************************************************
               *                     SUCCESS                       *
               *           SCF CONVERGED AFTER   8 CYCLES          *
               *****************************************************

Old exchange energy                            =     -1.250364810 Eh
New exchange energy                            =     -1.250367090 Eh
Exchange energy change after final integration =     -0.000002280 Eh
Total energy after final integration           =    -39.820521035 Eh
Final COS-X integration done in                =     0.167 sec

----------------
TOTAL SCF ENERGY
----------------

Total Energy       :          -39.82052104 Eh           -1083.57147 eV

Components:
Nuclear Repulsion  :           10.04300819 Eh             273.28415 eV
Electronic Energy  :          -49.86352923 Eh           -1356.85561 eV
One Electron Energy:          -72.32002897 Eh           -1967.92804 eV
Two Electron Energy:           22.45649975 Eh             611.07242 eV
Max COSX asymmetry :            0.00000004 Eh               0.00000 eV

Virial components:
Potential Energy   :          -79.61685177 Eh           -2166.48468 eV
Kinetic Energy     :           39.79633074 Eh            1082.91321 eV
Virial Ratio       :            2.00060785


DFT components:
N(Alpha)           :        4.999999544833 electrons
N(Beta)            :        4.000000563027 electrons
N(Total)           :        9.000000107860 electrons
E(X)               :       -4.946213735863 Eh       
E(C)               :       -0.311693872284 Eh       
E(XC)              :       -5.257907608147 Eh       
DFET-embed. en.    :        0.000000000000 Eh       

---------------
SCF CONVERGENCE
---------------

  Last Energy change         ...   -7.9360e-08  Tolerance :   1.0000e-06
  Last MAX-Density change    ...    0.0000e+00  Tolerance :   1.0000e-05
  Last RMS-Density change    ...    0.0000e+00  Tolerance :   1.0000e-06
  Last DIIS Error            ...    6.9498e-05  Tolerance :   1.0000e-06

             **** THE GBW FILE WAS UPDATED (/home/rwth0701/scratch/cs681498/orcajob__30556490-04D8/15380.gbw) ****
             **** DENSITY /home/rwth0701/scratch/cs681498/orcajob__30556490-04D8/15380.scfp WAS UPDATED ****
             **** ENERGY FILE WAS UPDATED (/home/rwth0701/scratch/cs681498/orcajob__30556490-04D8/15380.en.tmp) ****
----------------------
UHF SPIN CONTAMINATION
----------------------

Warning: in a DFT calculation there is little theoretical justification to 
         calculate <S**2> as in Hartree-Fock theory. We will do it anyways
         but you should keep in mind that the values have only limited relevance

Expectation value of <S**2>     :     0.753287
Ideal value S*(S+1) for S=0.5   :     0.750000
Deviation                       :     0.003287

             **** THE GBW FILE WAS UPDATED (/home/rwth0701/scratch/cs681498/orcajob__30556490-04D8/15380.gbw) ****
             **** DENSITY /home/rwth0701/scratch/cs681498/orcajob__30556490-04D8/15380.scfp WAS UPDATED ****
----------------
ORBITAL ENERGIES
----------------
                 SPIN UP ORBITALS
  NO   OCC          E(Eh)            E(eV) 
   0   1.0000     -10.171936      -276.7924 
   1   1.0000      -0.700103       -19.0508 
   2   1.0000      -0.450436       -12.2570 
   3   1.0000      -0.410516       -11.1707 
   4   1.0000      -0.234802        -6.3893 
   5   0.0000       0.001926         0.0524 
   6   0.0000       0.034677         0.9436 
   7   0.0000       0.038851         1.0572 
   8   0.0000       0.047667         1.2971 
   9   0.0000       0.091560         2.4915 
  10   0.0000       0.093811         2.5527 
  11   0.0000       0.107514         2.9256 
  12   0.0000       0.219618         5.9761 
  13   0.0000       0.223715         6.0876 
  14   0.0000       0.245758         6.6874 
  15   0.0000       0.276866         7.5339 
  16   0.0000       0.309122         8.4116 
  17   0.0000       0.328778         8.9465 
  18   0.0000       0.369015        10.0414 
  19   0.0000       0.550727        14.9861 
  20   0.0000       0.579983        15.7821 
  21   0.0000       0.729105        19.8399 
  22   0.0000       0.737516        20.0688 
  23   0.0000       0.760887        20.7048 
  24   0.0000       0.841634        22.9020 
  25   0.0000       0.887810        24.1585 
  26   0.0000       0.945970        25.7411 
  27   0.0000       0.957049        26.0426 
  28   0.0000       0.974360        26.5137 
  29   0.0000       1.058763        28.8104 
  30   0.0000       1.062662        28.9165 
  31   0.0000       1.153970        31.4011 
  32   0.0000       1.176649        32.0183 
  33   0.0000       1.179853        32.1054 
  34   0.0000       1.467348        39.9286 
  35   0.0000       1.478741        40.2386 
  36   0.0000       1.545683        42.0602 
  37   0.0000       1.746064        47.5128 
  38   0.0000       1.771387        48.2019 
  39   0.0000       1.795567        48.8599 
  40   0.0000       2.703581        73.5682 
  41   0.0000       2.726045        74.1795 
  42   0.0000       2.862883        77.9030 
  43   0.0000       2.884178        78.4825 
  44   0.0000       2.955355        80.4193 
  45   0.0000       2.984068        81.2006 
  46   0.0000       3.009294        81.8870 
  47   0.0000       3.148809        85.6835 
  48   0.0000       3.182299        86.5948 
  49   0.0000       3.242831        88.2419 
  50   0.0000       3.261149        88.7404 
  51   0.0000       3.718736       101.1919 
  52   0.0000       3.746774       101.9549 
  53   0.0000       3.840837       104.5145 
  54   0.0000       4.015677       109.2721 
  55   0.0000       4.063591       110.5759 
  56   0.0000       4.147048       112.8469 
  57   0.0000       4.211416       114.5985 
  58   0.0000       4.211759       114.6078 
  59   0.0000       4.308920       117.2517 
  60   0.0000       4.687128       127.5432 
  61   0.0000       5.056664       137.5988 
  62   0.0000       5.433185       147.8445 
  63   0.0000       5.648337       153.6991 
  64   0.0000       5.692945       154.9129 
  65   0.0000       6.111474       166.3017 
  66   0.0000       6.246834       169.9850 
  67   0.0000       7.891958       214.7511 
  68   0.0000      29.157583       793.4182 
  69   0.0000      37.221971      1012.8613 
  70   0.0000      37.249823      1013.6192 
  71   0.0000      37.297533      1014.9175 
  72   0.0000     133.634563      3636.3813 

                 SPIN DOWN ORBITALS
  NO   OCC          E(Eh)            E(eV) 
   0   1.0000     -10.157717      -276.4055 
   1   1.0000      -0.661265       -17.9939 
   2   1.0000      -0.440771       -11.9940 
   3   1.0000      -0.400209       -10.8903 
   4   0.0000      -0.077823        -2.1177 
   5   0.0000       0.004753         0.1293 
   6   0.0000       0.034295         0.9332 
   7   0.0000       0.038348         1.0435 
   8   0.0000       0.060805         1.6546 
   9   0.0000       0.092998         2.5306 
  10   0.0000       0.095902         2.6096 
  11   0.0000       0.109453         2.9784 
  12   0.0000       0.220568         6.0019 
  13   0.0000       0.225695         6.1415 
  14   0.0000       0.265454         7.2234 
  15   0.0000       0.310964         8.4618 
  16   0.0000       0.313781         8.5384 
  17   0.0000       0.335552         9.1308 
  18   0.0000       0.381198        10.3729 
  19   0.0000       0.578106        15.7311 
  20   0.0000       0.609186        16.5768 
  21   0.0000       0.729966        19.8634 
  22   0.0000       0.741925        20.1888 
  23   0.0000       0.784323        21.3425 
  24   0.0000       0.840606        22.8741 
  25   0.0000       0.896809        24.4034 
  26   0.0000       0.957394        26.0520 
  27   0.0000       0.964979        26.2584 
  28   0.0000       0.994345        27.0575 
  29   0.0000       1.082114        29.4458 
  30   0.0000       1.118211        30.4281 
  31   0.0000       1.175704        31.9925 
  32   0.0000       1.190356        32.3912 
  33   0.0000       1.193055        32.4647 
  34   0.0000       1.485144        40.4128 
  35   0.0000       1.487896        40.4877 
  36   0.0000       1.559567        42.4380 
  37   0.0000       1.751169        47.6517 
  38   0.0000       1.778741        48.4020 
  39   0.0000       1.803091        49.0646 
  40   0.0000       2.744405        74.6790 
  41   0.0000       2.767047        75.2952 
  42   0.0000       2.865400        77.9715 
  43   0.0000       2.911804        79.2342 
  44   0.0000       2.990240        81.3686 
  45   0.0000       3.013081        81.9901 
  46   0.0000       3.060411        83.2780 
  47   0.0000       3.198124        87.0254 
  48   0.0000       3.230806        87.9147 
  49   0.0000       3.299667        89.7885 
  50   0.0000       3.312233        90.1305 
  51   0.0000       3.749462       102.0281 
  52   0.0000       3.782654       102.9313 
  53   0.0000       3.838616       104.4540 
  54   0.0000       4.032778       109.7375 
  55   0.0000       4.066737       110.6615 
  56   0.0000       4.164977       113.3348 
  57   0.0000       4.216300       114.7314 
  58   0.0000       4.236492       115.2808 
  59   0.0000       4.310565       117.2964 
  60   0.0000       4.687581       127.5556 
  61   0.0000       5.079297       138.2147 
  62   0.0000       5.431670       147.8033 
  63   0.0000       5.646039       153.6365 
  64   0.0000       5.690652       154.8505 
  65   0.0000       6.118238       166.4857 
  66   0.0000       6.249944       170.0696 
  67   0.0000       7.928109       215.7348 
  68   0.0000      29.184444       794.1491 
  69   0.0000      37.210790      1012.5571 
  70   0.0000      37.238943      1013.3231 
  71   0.0000      37.286533      1014.6181 
  72   0.0000     133.642311      3636.5922 

                    ********************************
                    * MULLIKEN POPULATION ANALYSIS *
                    ********************************

--------------------------------------------
MULLIKEN ATOMIC CHARGES AND SPIN POPULATIONS
--------------------------------------------
   0 C :   -0.431887    1.097619
   1 H :    0.152251   -0.031231
   2 H :    0.138517   -0.033948
   3 H :    0.141119   -0.032441
Sum of atomic charges         :   -0.0000000
Sum of atomic spin populations:    1.0000000

-----------------------------------------------------
MULLIKEN REDUCED ORBITAL CHARGES AND SPIN POPULATIONS
-----------------------------------------------------
CHARGE
  0 C s       :     3.302216  s :     3.302216
      pz      :     0.966436  p :     3.101566
      px      :     1.077486
      py      :     1.057644
      dz2     :     0.005678  d :     0.024722
      dxz     :     0.000058
      dyz     :     0.000228
      dx2y2   :     0.009108
      dxy     :     0.009651
      f0      :     0.000047  f :     0.003383
      f+1     :     0.000718
      f-1     :     0.000821
      f+2     :     0.000031
      f-2     :     0.000030
      f+3     :     0.001335
      f-3     :     0.000400
  1 H s       :     0.819130  s :     0.819130
      pz      :     0.011592  p :     0.028619
      px      :     0.007384
      py      :     0.009644
  2 H s       :     0.832848  s :     0.832848
      pz      :     0.010910  p :     0.028635
      px      :     0.010323
      py      :     0.007402
  3 H s       :     0.829293  s :     0.829293
      pz      :     0.011311  p :     0.029588
      px      :     0.008834
      py      :     0.009443

SPIN
  0 C s       :     0.067688  s :     0.067688
      pz      :     0.959783  p :     1.034315
      px      :     0.034836
      py      :     0.039695
      dz2     :    -0.004589  d :    -0.003024
      dxz     :    -0.000003
      dyz     :    -0.000080
      dx2y2   :     0.000787
      dxy     :     0.000861
      f0      :    -0.000014  f :    -0.001359
      f+1     :    -0.000617
      f-1     :    -0.000670
      f+2     :    -0.000009
      f-2     :    -0.000009
      f+3     :    -0.000043
      f-3     :     0.000003
  1 H s       :    -0.042708  s :    -0.042708
      pz      :     0.011497  p :     0.011477
      px      :    -0.000070
      py      :     0.000050
  2 H s       :    -0.044100  s :    -0.044100
      pz      :     0.010868  p :     0.010152
      px      :    -0.000351
      py      :    -0.000365
  3 H s       :    -0.042895  s :    -0.042895
      pz      :     0.011266  p :     0.010454
      px      :    -0.000731
      py      :    -0.000081


                     *******************************
                     * LOEWDIN POPULATION ANALYSIS *
                     *******************************

-------------------------------------------
LOEWDIN ATOMIC CHARGES AND SPIN POPULATIONS
-------------------------------------------
   0 C :   -0.114948    0.889743
   1 H :    0.047494    0.033750
   2 H :    0.041134    0.035940
   3 H :    0.026321    0.040568

----------------------------------------------------
LOEWDIN REDUCED ORBITAL CHARGES AND SPIN POPULATIONS
----------------------------------------------------
CHARGE
  0 C s       :     2.849279  s :     2.849279
      pz      :     0.860149  p :     3.165744
      px      :     1.159933
      py      :     1.145662
      dz2     :     0.007771  d :     0.091574
      dxz     :     0.000232
      dyz     :     0.000541
      dx2y2   :     0.041122
      dxy     :     0.041908
      f0      :     0.000312  f :     0.008352
      f+1     :     0.001736
      f-1     :     0.002141
      f+2     :     0.000061
      f-2     :     0.000061
      f+3     :     0.002913
      f-3     :     0.001127
  1 H s       :     0.802816  s :     0.802816
      pz      :     0.045275  p :     0.149690
      px      :     0.039753
      py      :     0.064662
  2 H s       :     0.801277  s :     0.801277
      pz      :     0.046343  p :     0.157589
      px      :     0.072054
      py      :     0.039192
  3 H s       :     0.806263  s :     0.806263
      pz      :     0.049861  p :     0.167416
      px      :     0.053950
      py      :     0.063605

SPIN
  0 C s       :     0.017433  s :     0.017433
      pz      :     0.852794  p :     0.880968
      px      :     0.012805
      py      :     0.015369
      dz2     :    -0.004147  d :    -0.007386
      dxz     :    -0.000016
      dyz     :    -0.000096
      dx2y2   :    -0.001549
      dxy     :    -0.001579
      f0      :     0.000199  f :    -0.001273
      f+1     :    -0.000542
      f-1     :    -0.000587
      f+2     :    -0.000012
      f-2     :    -0.000013
      f+3     :    -0.000246
      f-3     :    -0.000071
  1 H s       :    -0.016476  s :    -0.016476
      pz      :     0.044708  p :     0.050226
      px      :     0.001209
      py      :     0.004309
  2 H s       :    -0.015046  s :    -0.015046
      pz      :     0.046111  p :     0.050986
      px      :     0.003742
      py      :     0.001134
  3 H s       :    -0.014043  s :    -0.014043
      pz      :     0.049605  p :     0.054611
      px      :     0.001179
      py      :     0.003827


                      *****************************
                      * MAYER POPULATION ANALYSIS *
                      *****************************

  NA   - Mulliken gross atomic population
  ZA   - Total nuclear charge
  QA   - Mulliken gross atomic charge
  VA   - Mayer's total valence
  BVA  - Mayer's bonded valence
  FA   - Mayer's free valence

  ATOM       NA         ZA         QA         VA         BVA        FA
  0 C      6.4319     6.0000    -0.4319     3.8904     2.9493     0.9410
  1 H      0.8477     1.0000     0.1523     0.9913     0.9894     0.0019
  2 H      0.8615     1.0000     0.1385     0.9842     0.9822     0.0019
  3 H      0.8589     1.0000     0.1411     0.9829     0.9811     0.0018

  Mayer bond orders larger than 0.100000
B(  0-C ,  1-H ) :   0.9814 B(  0-C ,  2-H ) :   0.9842 B(  0-C ,  3-H ) :   0.9837 


-------
TIMINGS
-------

Total SCF time: 0 days 0 hours 0 min 4 sec 

Total time                  ....       4.288 sec
Sum of individual times     ....       3.729 sec  ( 87.0%)

Fock matrix formation       ....       3.146 sec  ( 73.4%)
  Split-RI-J                ....       0.345 sec  ( 11.0% of F)
  Chain of spheres X        ....       0.798 sec  ( 25.4% of F)
  XC integration            ....       1.243 sec  ( 39.5% of F)
    Basis function eval.    ....       0.100 sec  (  8.1% of XC)
    Density eval.           ....       0.091 sec  (  7.3% of XC)
    XC-Functional eval.     ....       0.087 sec  (  7.0% of XC)
    XC-Potential eval.      ....       0.145 sec  ( 11.7% of XC)
Diagonalization             ....       0.033 sec  (  0.8%)
Density matrix formation    ....       0.016 sec  (  0.4%)
Population analysis         ....       0.052 sec  (  1.2%)
Initial guess               ....       0.065 sec  (  1.5%)
Orbital Transformation      ....       0.000 sec  (  0.0%)
Orbital Orthonormalization  ....       0.000 sec  (  0.0%)
DIIS solution               ....       0.075 sec  (  1.8%)
Grid generation             ....       0.342 sec  (  8.0%)

Maximum memory used throughout the entire SCF-calculation: 59.0 MB

-------------------------   --------------------
FINAL SINGLE POINT ENERGY       -39.820521035143
-------------------------   --------------------

   --->>> g-tensor requested, so NeedSOC=true

                            ***************************************
                            *     ORCA property calculations      *
                            ***************************************

                                    ---------------------
                                    Active property flags
                                    ---------------------
   (+) Dipole Moment
   (+) g-tensor
   (+) Nuclear properties (Hyperfine,Quadrupole)
   (+) Spin-Orbit Integrals are needed


------------------------------------------------------------------------------
                       ORCA ELECTRIC PROPERTIES CALCULATION
------------------------------------------------------------------------------

Dipole Moment Calculation                       ... on
Quadrupole Moment Calculation                   ... off
Polarizability Calculation                      ... off
GBWName                                         ... /home/rwth0701/scratch/cs681498/orcajob__30556490-04D8/15380.gbw
Electron density                                ... /home/rwth0701/scratch/cs681498/orcajob__30556490-04D8/15380.scfp
The origin for moment calculation is the CENTER OF MASS  = (-130.809290, -176.219115 -52.573195)

-------------
DIPOLE MOMENT
-------------
                                X             Y             Z
Electronic contribution:     -0.05965      -0.10717       0.01056
Nuclear contribution   :      0.06381       0.12995      -0.02211
                        -----------------------------------------
Total Dipole Moment    :      0.00415       0.02278      -0.01155
                        -----------------------------------------
Magnitude (a.u.)       :      0.02588
Magnitude (Debye)      :      0.06577



--------------------
Rotational spectrum 
--------------------
 
Rotational constants in cm-1:    12.312203     8.855288     5.152431 
Rotational constants in MHz : 369110.561717 265474.846688 154466.005680 

 Dipole components along the rotational axes: 
x,y,z [a.u.] :     0.021367    -0.005947    -0.013328 
x,y,z [Debye]:     0.054311    -0.015116    -0.033878 

 


           ************************************************************
           *        Program running with 4 parallel MPI-processes     *
           *              working on a common directory               *
           ************************************************************
------------------------------------------------------------------------------
                         ORCA SPIN-ORBIT COUPLING CALCULATION
------------------------------------------------------------------------------

GBW file                                    ... /home/rwth0701/scratch/cs681498/orcajob__30556490-04D8/15380.gbw
Input density                               ... /home/rwth0701/scratch/cs681498/orcajob__30556490-04D8/15380.scfp
Output integrals                            ... /home/rwth0701/scratch/cs681498/orcajob__30556490-04D8/15380
Operator type                               ... Mean-field/Effective potential
   One-Electron Terms                       ... 1
   Coulomb Contribution                     ... 3
   Exchange Contribution                    ... 3
   Correlation Contribution                 ... 0
   Maximum number of centers                ... 4
SHARK 2-electron RIJ-SOMF                   ... done (  0.1 sec)
SHARK 1-electron  MaxCenter=4               ... done (  0.0 sec)
SHARK 2-electron DoJ,X=0,1 MaxCenter=1      ... done (  0.1 sec)

Maximum memory used throughout the entire SOC-calculation: 11.3 MB
Total time for SOC:  1.940


           ************************************************************
           *        Program running with 4 parallel MPI-processes     *
           *              working on a common directory               *
           ************************************************************
------------------------------------------------------------------------------
                                ORCA EPR/NMR CALCULATION
------------------------------------------------------------------------------

GBWName                      ... /home/rwth0701/scratch/cs681498/orcajob__30556490-04D8/15380.gbw
Electron density             ... /home/rwth0701/scratch/cs681498/orcajob__30556490-04D8/15380.scfp
Spin density                 ... /home/rwth0701/scratch/cs681498/orcajob__30556490-04D8/15380.scfr
Spin-orbit integrals         ... /home/rwth0701/scratch/cs681498/orcajob__30556490-04D8/15380
Treatment of gauge           ... GIAO (approximations 1/2el = 0,0)
Details of the CP(SCF) procedure:
       Solver   = POPLE   
       MaxIter  =    64   
       Tolerance=    1.000e-03
       COSX Grid=     1   
       Op-0     =   0-  4 =>   5- 72
       Op-1     =   0-  3 =>   4- 72
Multiplicity                 ... 2
g-tensor                     ... 1
NMR chemical shifts          ... 0
NMR spin-spin couplings      ... 0
NMR spectrum                 ... 0
Number of nuclei for epr/nmr ... 4
   Nucleus:   1H 
       Hyperfine : Isotope=    1 I=   0.500 P= 533.551
       Quadrupole: Isotope=    2 I=   1.000 Q=   0.003
       Spin-Orbit: Zeff=   1.000
       Nuclear Spin-Spin: Gn=   0.000
       EPRNMR Input: 
       rho(0)=N f(grad)=N a(iso)=Y a(dip)=Y a(orb)=Y sigma(nmr)=N spin-spin(nmr)=all-N,DSO-N,PSO-N,FC-N,SD-N
   Nucleus:   2H 
       Hyperfine : Isotope=    1 I=   0.500 P= 533.551
       Quadrupole: Isotope=    2 I=   1.000 Q=   0.003
       Spin-Orbit: Zeff=   1.000
       Nuclear Spin-Spin: Gn=   0.000
       EPRNMR Input: 
       rho(0)=N f(grad)=N a(iso)=Y a(dip)=Y a(orb)=Y sigma(nmr)=N spin-spin(nmr)=all-N,DSO-N,PSO-N,FC-N,SD-N
   Nucleus:   3H 
       Hyperfine : Isotope=    1 I=   0.500 P= 533.551
       Quadrupole: Isotope=    2 I=   1.000 Q=   0.003
       Spin-Orbit: Zeff=   1.000
       Nuclear Spin-Spin: Gn=   0.000
       EPRNMR Input: 
       rho(0)=N f(grad)=N a(iso)=Y a(dip)=Y a(orb)=Y sigma(nmr)=N spin-spin(nmr)=all-N,DSO-N,PSO-N,FC-N,SD-N
   Nucleus:   0C 
       Hyperfine : Isotope=   13 I=   0.500 P= 134.190
       Quadrupole: Isotope=   13 I=   0.500 Q=   0.000
       Spin-Orbit: Zeff=   3.600
       Nuclear Spin-Spin: Gn=   0.000
       EPRNMR Input: 
       rho(0)=N f(grad)=N a(iso)=Y a(dip)=Y a(orb)=Y sigma(nmr)=N spin-spin(nmr)=all-N,DSO-N,PSO-N,FC-N,SD-N
Forming RHS of the CP-SCF equations         ... 
Calculating right hand sides for GIAO treatment        ... 
  Entering RightHandSide GIAO. ScalHFX=    0.2000 NeedHFX=1
     -> 1-electron GIAO integrals will be done analytically
     -> RIJCOSX used in SCF. Same chosen for GIAO calculation.
     Making grid for GIAO integrations   ...

GRID GIAO
---------

General Integration Accuracy     IntAcc      ... 4.388
Radial Grid Type                 RadialGrid  ... OptM3 with GC (2021)
Angular Grid (max. ang.)         AngularGrid ... 4 (Lebedev-302)
Angular grid pruning method      GridPruning ... 4 (adaptive)
Weight generation scheme         WeightScheme... Becke
Basis function cutoff            BFCut       ... 1.0000e-10
Integration weight cutoff        WCut        ... 1.0000e-14
Angular grids for H and He will be reduced by one unit
Partially contracted basis set               ... off
Rotationally invariant grid construction     ... off

Total number of grid points                  ...    17026
Total number of batches                      ...      268
Average number of points per batch           ...       63
Average number of grid points per atom       ...     4256

  One-electron GIAO integrals (SHARK)     ... done
  Calculating G(B)[P]                     ... (RI-J: SHARK-ok) (COSX-ok) (add-J+K:ok) => dG/dB done
  DFT XC-terms                            ... done
  Extracting occupied and virtual blocks  ... 
  Operator  0  NO=   5 NV=  68 
  Operator  1  NO=   4 NV=  69 
  Transforming and RHS contribution       ... done
  Adding eps_i * S(B)_ai terms            ... done
  Projecting overlap derivatives          ... done
  Building G[dS/dB_ij] (COSX)             ... done
  Transforming to MO basis                ... done
  Summing G[dS/dB_ij] into RHS contribs.  ... done

  GIAO profiling information: 
    Total GIAO time               ...       0.7 sec
       GIAO 1-electron integrals  ...       0.0 sec (  1.8%)
       GIAO G(dS/dB) terms        ...       0.1 sec ( 12.2%)
       GIAO RI-J                  ...       0.1 sec ( 12.7%)
       GIAO COSX                  ...       0.1 sec ( 18.0%)
       GIAO XC-terms              ...       0.3 sec ( 35.6%)

  GIAO right hand side done


------------------------------------------------------------------------------
                           ORCA CP-SCF CALCULATION
------------------------------------------------------------------------------

Input orbitals are from        ... /home/rwth0701/scratch/cs681498/orcajob__30556490-04D8/15380.gbw
Input Perturbation             ... /home/rwth0701/scratch/cs681498/orcajob__30556490-04D8/15380.pin.tmp
Wavefunction output            ... /home/rwth0701/scratch/cs681498/orcajob__30556490-04D8/15380.pout.tmp
Perturbation mode              ... Imaginary perturbation
Solver                         ... POPLE
Max. number of iterations      ... 64
Convergence tolerance          ... 1.000e-03
Integral handling              ... Direct
DFT GridXC                     ... 1
COSX GridX                     ... 1
COSX IntAccX                   ... 3.067
COSX Algorithm                 ... Auto
Number of perturbations        ... 3
Number of operators            ... 2
Orbital ranges used for CP-SCF:
 Operator 0:  Orbitals   0...  4  to   5... 72
 Operator 1:  Orbitals   0...  3  to   4... 72
Variables per perturbation     ... 616
DFT calculation                         ... on
XC functional terms                     ... off
Hybrid DFT                              ... on
   Exchange mixing (SCF)                ...  0.200
   Exchange mixing (CP-SCF)             ...  0.200
   GGA exch. scaling(SCF)               ...  0.720
   GGA exch. scaling (CP-SCF)           ...  0.720
   GGA corr. scaling (SCF)              ...  0.810
   GGA corr. scaling (CP-SCF)           ...  0.810

CP-SCF GRID
-----------

General Integration Accuracy     IntAcc      ... 3.467
Radial Grid Type                 RadialGrid  ... OptM3 with GC (2021)
Angular Grid (max. ang.)         AngularGrid ... 1 (Lebedev-50)
Angular grid pruning method      GridPruning ... 4 (adaptive)
Weight generation scheme         WeightScheme... Becke
Basis function cutoff            BFCut       ... 1.0000e-10
Integration weight cutoff        WCut        ... 1.0000e-14
Angular grids for H and He will be reduced by one unit
Partially contracted basis set               ... off
Rotationally invariant grid construction     ... off

Total number of grid points                  ...     2342
Total number of batches                      ...       39
Average number of points per batch           ...       60
Average number of grid points per atom       ...      586

CP-SCF GRIDX
------------

General Integration Accuracy     IntAcc      ... 3.067
Radial Grid Type                 RadialGrid  ... OptM3 with GC (2021)
Angular Grid (max. ang.)         AngularGrid ... 1 (Lebedev-50)
Angular grid pruning method      GridPruning ... 4 (adaptive)
Weight generation scheme         WeightScheme... Becke
Basis function cutoff            BFCut       ... 1.0000e-10
Integration weight cutoff        WCut        ... 1.0000e-14
Angular grids for H and He will be reduced by one unit
Partially contracted basis set               ... on
Rotationally invariant grid construction     ... off

Total number of grid points                  ...     1072
Total number of batches                      ...       20
Average number of points per batch           ...       53
Average number of grid points per atom       ...      268

Memory available               ... 1014.6 MB
Memory needed per perturbation ...   0.4 MB
Perturbations treated per batch... 3
Number of batches              ... 1
     CP-SCF ITERATION   0:   7.9814e+00 (   0.1 sec   0/  3 done)
     CP-SCF ITERATION   1:   6.9736e-02 (   0.1 sec   0/  3 done)
     CP-SCF ITERATION   2:   3.6534e-03 (   0.1 sec   0/  3 done)
     CP-SCF ITERATION   3:   3.4637e-04 (   0.1 sec   3/  3 done)
                    *** THE CP-SCF HAS CONVERGED ***

Forming final perturbed densities           ... done
Transforming perturbed density to AO basis  ... done

Magnetic field perturbation calculated in  1.223 sec
GIAO: Diamagnetic terms      (analytic)     (SHARK) ... done
GIAO: 1el-Paramagnetic terms (analytic)     (SHARK) ... done

-------------------
ELECTRONIC G-MATRIX
-------------------

 The g-matrix: 
              2.0029095    0.0000278    0.0000217
              0.0000318    2.0029584    0.0000577
              0.0000092    0.0000430    2.0022292

 gel          2.0023193    2.0023193    2.0023193
 gRMC        -0.0001256   -0.0001256   -0.0001256
 gDSO(tot)    0.0000342    0.0000711    0.0000716
 gPSO(tot)   -0.0000024    0.0006307    0.0007109
             ----------   ----------   ----------
 g(tot)       2.0022255    2.0028955    2.0029761 iso=  2.0026991
 Delta-g     -0.0000938    0.0005762    0.0006569 iso=  0.0003798
 Orientation: 
  X          -0.0195333   -0.9070112   -0.4206532
  Y          -0.0677518    0.4209672   -0.9045421
  Z           0.9975110    0.0108313   -0.0696746

Notes:  (1) The g-matrix conforms to the "BgS" spin Hamiltonian convention. 
        (2) The principal values are square roots of the eigenvalues of g*gT.
        (3) Orientations are eigenvectors of g*gT written as column vectors.
        (4) Individual contributions are projections of the full matrices onto the eigenvectors of g*gT.
        (5) Tensor is right-handed.


-----------------------------------------
ELECTRIC AND MAGNETIC HYPERFINE STRUCTURE
-----------------------------------------

 -----------------------------------------------------------
 Nucleus   1H : A:ISTP=    1 I=  0.5 P=533.5514 MHz/au**3
                Q:ISTP=    2 I=  1.0 Q=  0.0029 barn     
 -----------------------------------------------------------
 Solving for nuclear perturbation:
Forming RHS of the CP-SCF equations         ... 
Calc. nucleus orbit integrals (SHARK)       ... done

------------------------------------------------------------------------------
                           ORCA CP-SCF CALCULATION
------------------------------------------------------------------------------

Input orbitals are from        ... /home/rwth0701/scratch/cs681498/orcajob__30556490-04D8/15380.gbw
Input Perturbation             ... /home/rwth0701/scratch/cs681498/orcajob__30556490-04D8/15380.pin.tmp
Wavefunction output            ... /home/rwth0701/scratch/cs681498/orcajob__30556490-04D8/15380.pout.tmp
Perturbation mode              ... Imaginary perturbation
Solver                         ... POPLE
Max. number of iterations      ... 64
Convergence tolerance          ... 1.000e-03
Integral handling              ... Direct
DFT GridXC                     ... 1
COSX GridX                     ... 1
COSX IntAccX                   ... 3.067
COSX Algorithm                 ... Auto
Number of perturbations        ... 3
Number of operators            ... 2
Orbital ranges used for CP-SCF:
 Operator 0:  Orbitals   0...  4  to   5... 72
 Operator 1:  Orbitals   0...  3  to   4... 72
Variables per perturbation     ... 616
DFT calculation                         ... on
XC functional terms                     ... off
Hybrid DFT                              ... on
   Exchange mixing (SCF)                ...  0.200
   Exchange mixing (CP-SCF)             ...  0.200
   GGA exch. scaling(SCF)               ...  0.720
   GGA exch. scaling (CP-SCF)           ...  0.720
   GGA corr. scaling (SCF)              ...  0.810
   GGA corr. scaling (CP-SCF)           ...  0.810

CP-SCF GRID
-----------

General Integration Accuracy     IntAcc      ... 3.467
Radial Grid Type                 RadialGrid  ... OptM3 with GC (2021)
Angular Grid (max. ang.)         AngularGrid ... 1 (Lebedev-50)
Angular grid pruning method      GridPruning ... 4 (adaptive)
Weight generation scheme         WeightScheme... Becke
Basis function cutoff            BFCut       ... 1.0000e-10
Integration weight cutoff        WCut        ... 1.0000e-14
Angular grids for H and He will be reduced by one unit
Partially contracted basis set               ... off
Rotationally invariant grid construction     ... off

Total number of grid points                  ...     2342
Total number of batches                      ...       39
Average number of points per batch           ...       60
Average number of grid points per atom       ...      586

CP-SCF GRIDX
------------

General Integration Accuracy     IntAcc      ... 3.067
Radial Grid Type                 RadialGrid  ... OptM3 with GC (2021)
Angular Grid (max. ang.)         AngularGrid ... 1 (Lebedev-50)
Angular grid pruning method      GridPruning ... 4 (adaptive)
Weight generation scheme         WeightScheme... Becke
Basis function cutoff            BFCut       ... 1.0000e-10
Integration weight cutoff        WCut        ... 1.0000e-14
Angular grids for H and He will be reduced by one unit
Partially contracted basis set               ... on
Rotationally invariant grid construction     ... off

Total number of grid points                  ...     1072
Total number of batches                      ...       20
Average number of points per batch           ...       53
Average number of grid points per atom       ...      268

Memory available               ... 968.0 MB
Memory needed per perturbation ...   0.4 MB
Perturbations treated per batch... 3
Number of batches              ... 1
     CP-SCF ITERATION   0:   7.2211e-02 (   0.1 sec   0/  3 done)
     CP-SCF ITERATION   1:   3.0231e-03 (   0.1 sec   0/  3 done)
     CP-SCF ITERATION   2:   2.4407e-04 (   0.1 sec   3/  3 done)
                    *** THE CP-SCF HAS CONVERGED ***

Forming final perturbed densities           ... done
Transforming perturbed density to AO basis  ... done

 Raw HFC matrix (all values in MHz): 
 -----------------------------------
               -97.2502              28.0006               1.4082
                28.0002             -40.1407               3.1979
                 1.4081               3.1979             -64.5408

 A(FC)         -67.3262             -67.3262             -67.3262
 A(SD)          38.9435               2.4491             -41.3926
 A(ORB+DIA)      0.0170              -0.0008               0.0306    A(PC) =   0.0156
 A(ORB)          0.0118               0.0004               0.0291    A(PC) =   0.0138
 A(DIA)          0.0052              -0.0012               0.0015    A(PC) =   0.0018
             ----------           ----------           ----------
 A(Tot)        -28.3657             -64.8779            -108.6881    A(iso)=  -67.3106
 Orientation: 
  X           0.3765065           -0.0343601            0.9257765
  Y           0.9214152           -0.0897824           -0.3780651
  Z           0.0961088            0.9953685           -0.0021437

Notes:  (1) The A matrix conforms to the "SAI" spin Hamiltonian convention.
        (2) Tensor is right-handed.

 -----------------------------------------------------------
 Nucleus   2H : A:ISTP=    1 I=  0.5 P=533.5514 MHz/au**3
                Q:ISTP=    2 I=  1.0 Q=  0.0029 barn     
 -----------------------------------------------------------
 Solving for nuclear perturbation:
Forming RHS of the CP-SCF equations         ... 
Calc. nucleus orbit integrals (SHARK)       ... done

------------------------------------------------------------------------------
                           ORCA CP-SCF CALCULATION
------------------------------------------------------------------------------

Input orbitals are from        ... /home/rwth0701/scratch/cs681498/orcajob__30556490-04D8/15380.gbw
Input Perturbation             ... /home/rwth0701/scratch/cs681498/orcajob__30556490-04D8/15380.pin.tmp
Wavefunction output            ... /home/rwth0701/scratch/cs681498/orcajob__30556490-04D8/15380.pout.tmp
Perturbation mode              ... Imaginary perturbation
Solver                         ... POPLE
Max. number of iterations      ... 64
Convergence tolerance          ... 1.000e-03
Integral handling              ... Direct
DFT GridXC                     ... 1
COSX GridX                     ... 1
COSX IntAccX                   ... 3.067
COSX Algorithm                 ... Auto
Number of perturbations        ... 3
Number of operators            ... 2
Orbital ranges used for CP-SCF:
 Operator 0:  Orbitals   0...  4  to   5... 72
 Operator 1:  Orbitals   0...  3  to   4... 72
Variables per perturbation     ... 616
DFT calculation                         ... on
XC functional terms                     ... off
Hybrid DFT                              ... on
   Exchange mixing (SCF)                ...  0.200
   Exchange mixing (CP-SCF)             ...  0.200
   GGA exch. scaling(SCF)               ...  0.720
   GGA exch. scaling (CP-SCF)           ...  0.720
   GGA corr. scaling (SCF)              ...  0.810
   GGA corr. scaling (CP-SCF)           ...  0.810

CP-SCF GRID
-----------

General Integration Accuracy     IntAcc      ... 3.467
Radial Grid Type                 RadialGrid  ... OptM3 with GC (2021)
Angular Grid (max. ang.)         AngularGrid ... 1 (Lebedev-50)
Angular grid pruning method      GridPruning ... 4 (adaptive)
Weight generation scheme         WeightScheme... Becke
Basis function cutoff            BFCut       ... 1.0000e-10
Integration weight cutoff        WCut        ... 1.0000e-14
Angular grids for H and He will be reduced by one unit
Partially contracted basis set               ... off
Rotationally invariant grid construction     ... off

Total number of grid points                  ...     2342
Total number of batches                      ...       39
Average number of points per batch           ...       60
Average number of grid points per atom       ...      586

CP-SCF GRIDX
------------

General Integration Accuracy     IntAcc      ... 3.067
Radial Grid Type                 RadialGrid  ... OptM3 with GC (2021)
Angular Grid (max. ang.)         AngularGrid ... 1 (Lebedev-50)
Angular grid pruning method      GridPruning ... 4 (adaptive)
Weight generation scheme         WeightScheme... Becke
Basis function cutoff            BFCut       ... 1.0000e-10
Integration weight cutoff        WCut        ... 1.0000e-14
Angular grids for H and He will be reduced by one unit
Partially contracted basis set               ... on
Rotationally invariant grid construction     ... off

Total number of grid points                  ...     1072
Total number of batches                      ...       20
Average number of points per batch           ...       53
Average number of grid points per atom       ...      268

Memory available               ... 967.8 MB
Memory needed per perturbation ...   0.4 MB
Perturbations treated per batch... 3
Number of batches              ... 1
     CP-SCF ITERATION   0:   6.9677e-02 (   0.1 sec   0/  3 done)
     CP-SCF ITERATION   1:   2.6794e-03 (   0.1 sec   1/  3 done)
     CP-SCF ITERATION   2:   2.0429e-04 (   0.1 sec   3/  3 done)
                    *** THE CP-SCF HAS CONVERGED ***

Forming final perturbed densities           ... done
Transforming perturbed density to AO basis  ... done

 Raw HFC matrix (all values in MHz): 
 -----------------------------------
               -28.4602              20.6324               1.8094
                20.6336             -98.5506              -2.6123
                 1.8095              -2.6123             -59.0119

 A(FC)         -62.0244             -62.0244             -62.0244
 A(SD)          39.1999               3.1802             -42.3801
 A(ORB+DIA)      0.0181              -0.0008               0.0332    A(PC) =   0.0168
 A(ORB)          0.0128               0.0004               0.0315    A(PC) =   0.0149
 A(DIA)          0.0053              -0.0012               0.0016    A(PC) =   0.0019
             ----------           ----------           ----------
 A(Tot)        -22.8064             -58.8450            -104.3714    A(iso)=  -62.0076
 Orientation: 
  X           0.9646860            0.0109653           -0.2631744
  Y           0.2617654            0.0713188            0.9624928
  Z           0.0293233           -0.9973933            0.0659299

Notes:  (1) The A matrix conforms to the "SAI" spin Hamiltonian convention.
        (2) Tensor is right-handed.

 -----------------------------------------------------------
 Nucleus   3H : A:ISTP=    1 I=  0.5 P=533.5514 MHz/au**3
                Q:ISTP=    2 I=  1.0 Q=  0.0029 barn     
 -----------------------------------------------------------
 Solving for nuclear perturbation:
Forming RHS of the CP-SCF equations         ... 
Calc. nucleus orbit integrals (SHARK)       ... done

------------------------------------------------------------------------------
                           ORCA CP-SCF CALCULATION
------------------------------------------------------------------------------

Input orbitals are from        ... /home/rwth0701/scratch/cs681498/orcajob__30556490-04D8/15380.gbw
Input Perturbation             ... /home/rwth0701/scratch/cs681498/orcajob__30556490-04D8/15380.pin.tmp
Wavefunction output            ... /home/rwth0701/scratch/cs681498/orcajob__30556490-04D8/15380.pout.tmp
Perturbation mode              ... Imaginary perturbation
Solver                         ... POPLE
Max. number of iterations      ... 64
Convergence tolerance          ... 1.000e-03
Integral handling              ... Direct
DFT GridXC                     ... 1
COSX GridX                     ... 1
COSX IntAccX                   ... 3.067
COSX Algorithm                 ... Auto
Number of perturbations        ... 3
Number of operators            ... 2
Orbital ranges used for CP-SCF:
 Operator 0:  Orbitals   0...  4  to   5... 72
 Operator 1:  Orbitals   0...  3  to   4... 72
Variables per perturbation     ... 616
DFT calculation                         ... on
XC functional terms                     ... off
Hybrid DFT                              ... on
   Exchange mixing (SCF)                ...  0.200
   Exchange mixing (CP-SCF)             ...  0.200
   GGA exch. scaling(SCF)               ...  0.720
   GGA exch. scaling (CP-SCF)           ...  0.720
   GGA corr. scaling (SCF)              ...  0.810
   GGA corr. scaling (CP-SCF)           ...  0.810

CP-SCF GRID
-----------

General Integration Accuracy     IntAcc      ... 3.467
Radial Grid Type                 RadialGrid  ... OptM3 with GC (2021)
Angular Grid (max. ang.)         AngularGrid ... 1 (Lebedev-50)
Angular grid pruning method      GridPruning ... 4 (adaptive)
Weight generation scheme         WeightScheme... Becke
Basis function cutoff            BFCut       ... 1.0000e-10
Integration weight cutoff        WCut        ... 1.0000e-14
Angular grids for H and He will be reduced by one unit
Partially contracted basis set               ... off
Rotationally invariant grid construction     ... off

Total number of grid points                  ...     2342
Total number of batches                      ...       39
Average number of points per batch           ...       60
Average number of grid points per atom       ...      586

CP-SCF GRIDX
------------

General Integration Accuracy     IntAcc      ... 3.067
Radial Grid Type                 RadialGrid  ... OptM3 with GC (2021)
Angular Grid (max. ang.)         AngularGrid ... 1 (Lebedev-50)
Angular grid pruning method      GridPruning ... 4 (adaptive)
Weight generation scheme         WeightScheme... Becke
Basis function cutoff            BFCut       ... 1.0000e-10
Integration weight cutoff        WCut        ... 1.0000e-14
Angular grids for H and He will be reduced by one unit
Partially contracted basis set               ... on
Rotationally invariant grid construction     ... off

Total number of grid points                  ...     1072
Total number of batches                      ...       20
Average number of points per batch           ...       53
Average number of grid points per atom       ...      268

Memory available               ... 967.7 MB
Memory needed per perturbation ...   0.4 MB
Perturbations treated per batch... 3
Number of batches              ... 1
     CP-SCF ITERATION   0:   6.9153e-02 (   0.1 sec   0/  3 done)
     CP-SCF ITERATION   1:   2.8159e-03 (   0.1 sec   1/  3 done)
     CP-SCF ITERATION   2:   2.5942e-04 (   0.1 sec   3/  3 done)
                    *** THE CP-SCF HAS CONVERGED ***

Forming final perturbed densities           ... done
Transforming perturbed density to AO basis  ... done

 Raw HFC matrix (all values in MHz): 
 -----------------------------------
               -83.1498             -37.2199              -3.2686
               -37.2215             -43.5820              -0.6714
                -3.2687              -0.6713             -56.5578

 A(FC)         -61.1136             -61.1136             -61.1136
 A(SD)          39.9170               4.7233             -44.6403
 A(ORB+DIA)      0.0175              -0.0007               0.0346    A(PC) =   0.0171
 A(ORB)          0.0118               0.0005               0.0328    A(PC) =   0.0150
 A(DIA)          0.0057              -0.0012               0.0018    A(PC) =   0.0021
             ----------           ----------           ----------
 A(Tot)        -21.1791             -56.3910            -105.7194    A(iso)=  -61.0965
 Orientation: 
  X           0.5158446            0.0385918            0.8558125
  Y          -0.8561061            0.0598510            0.5133227
  Z          -0.0314112           -0.9974610            0.0639125

Notes:  (1) The A matrix conforms to the "SAI" spin Hamiltonian convention.
        (2) Tensor is right-handed.

 -----------------------------------------------------------
 Nucleus   0C : A:ISTP=   13 I=  0.5 P=134.1903 MHz/au**3
                Q:ISTP=   13 I=  0.5 Q=  0.0000 barn     
 -----------------------------------------------------------
 Solving for nuclear perturbation:
Forming RHS of the CP-SCF equations         ... 
Calc. nucleus orbit integrals (SHARK)       ... done

------------------------------------------------------------------------------
                           ORCA CP-SCF CALCULATION
------------------------------------------------------------------------------

Input orbitals are from        ... /home/rwth0701/scratch/cs681498/orcajob__30556490-04D8/15380.gbw
Input Perturbation             ... /home/rwth0701/scratch/cs681498/orcajob__30556490-04D8/15380.pin.tmp
Wavefunction output            ... /home/rwth0701/scratch/cs681498/orcajob__30556490-04D8/15380.pout.tmp
Perturbation mode              ... Imaginary perturbation
Solver                         ... POPLE
Max. number of iterations      ... 64
Convergence tolerance          ... 1.000e-03
Integral handling              ... Direct
DFT GridXC                     ... 1
COSX GridX                     ... 1
COSX IntAccX                   ... 3.067
COSX Algorithm                 ... Auto
Number of perturbations        ... 3
Number of operators            ... 2
Orbital ranges used for CP-SCF:
 Operator 0:  Orbitals   0...  4  to   5... 72
 Operator 1:  Orbitals   0...  3  to   4... 72
Variables per perturbation     ... 616
DFT calculation                         ... on
XC functional terms                     ... off
Hybrid DFT                              ... on
   Exchange mixing (SCF)                ...  0.200
   Exchange mixing (CP-SCF)             ...  0.200
   GGA exch. scaling(SCF)               ...  0.720
   GGA exch. scaling (CP-SCF)           ...  0.720
   GGA corr. scaling (SCF)              ...  0.810
   GGA corr. scaling (CP-SCF)           ...  0.810

CP-SCF GRID
-----------

General Integration Accuracy     IntAcc      ... 3.467
Radial Grid Type                 RadialGrid  ... OptM3 with GC (2021)
Angular Grid (max. ang.)         AngularGrid ... 1 (Lebedev-50)
Angular grid pruning method      GridPruning ... 4 (adaptive)
Weight generation scheme         WeightScheme... Becke
Basis function cutoff            BFCut       ... 1.0000e-10
Integration weight cutoff        WCut        ... 1.0000e-14
Angular grids for H and He will be reduced by one unit
Partially contracted basis set               ... off
Rotationally invariant grid construction     ... off

Total number of grid points                  ...     2342
Total number of batches                      ...       39
Average number of points per batch           ...       60
Average number of grid points per atom       ...      586

CP-SCF GRIDX
------------

General Integration Accuracy     IntAcc      ... 3.067
Radial Grid Type                 RadialGrid  ... OptM3 with GC (2021)
Angular Grid (max. ang.)         AngularGrid ... 1 (Lebedev-50)
Angular grid pruning method      GridPruning ... 4 (adaptive)
Weight generation scheme         WeightScheme... Becke
Basis function cutoff            BFCut       ... 1.0000e-10
Integration weight cutoff        WCut        ... 1.0000e-14
Angular grids for H and He will be reduced by one unit
Partially contracted basis set               ... on
Rotationally invariant grid construction     ... off

Total number of grid points                  ...     1072
Total number of batches                      ...       20
Average number of points per batch           ...       53
Average number of grid points per atom       ...      268

Memory available               ... 967.6 MB
Memory needed per perturbation ...   0.4 MB
Perturbations treated per batch... 3
Number of batches              ... 1
     CP-SCF ITERATION   0:   1.1399e+00 (   0.1 sec   0/  3 done)
     CP-SCF ITERATION   1:   4.5720e-02 (   0.1 sec   0/  3 done)
     CP-SCF ITERATION   2:   3.0715e-03 (   0.1 sec   0/  3 done)
     CP-SCF ITERATION   3:   2.0297e-04 (   0.1 sec   3/  3 done)
                    *** THE CP-SCF HAS CONVERGED ***

Forming final perturbed densities           ... done
Transforming perturbed density to AO basis  ... done

 Raw HFC matrix (all values in MHz): 
 -----------------------------------
                -8.5304               0.3190              -6.8040
                 0.3190              -7.9726             -18.0513
                -6.8040             -18.0513             229.5170

 A(FC)          71.1091              71.1091              71.1091
 A(SD)         -79.6176             -80.3589             159.9765
 A(ORB+DIA)     -0.1589              -0.1436              -0.0109    A(PC) =  -0.1045
 A(ORB)         -0.1593              -0.1441              -0.0108    A(PC) =  -0.1048
 A(DIA)          0.0004               0.0005              -0.0001    A(PC) =   0.0003
             ----------           ----------           ----------
 A(Tot)         -8.6673              -9.3934             231.0747    A(iso)=   71.0046
 Orientation: 
  X           0.9599029            0.2788898           -0.0284048
  Y          -0.2802645            0.9569643           -0.0753065
  Z           0.0061802            0.0802478            0.9967558

Notes:  (1) The A matrix conforms to the "SAI" spin Hamiltonian convention.
        (2) Tensor is right-handed.


--------------------------------------------------------------------------------
----------------------------------------------------------------------------
                           ORCA EULER ANGLE PROGRAM
----------------------------------------------------------------------------

Only g-tensor available        -->  using g-tensor as reference tensor

Reference tensor               ...  g

g-tensor ordering              ...  |g_min> --> |gx>
                                    |g_mid> --> |gy>
                                    |g_max> --> |gz>

A- and EFG-tensor ordering     ...  the axes |Ax>, |Qx>, |Ay>, etc. are assigned
                                    such that the Euler rotation is minimal. You
                                    can find the respective eigenvalues as Ax,
                                    EFGx, Ay, etc. in the tables below.
                                    The relation of |Ax>, |Ay>,  etc. to Amin, Amid, etc.
                                    (as printed in the ORCA EPR/NMR CALCULATION Output)
                                    is obtained in the detailed printout.

Euler rotation around          ...  z - y - z
   First rotation              -->  by alpha around z
   Second rotation             -->  by beta around y'
   Third rotation              -->  by gamma around z''
   Positive / Negative angle   -->  clockwise / counterclockwise rotation

Plot EFG-tensors                    (-)
Plot HFC-tensors                    (-)
Detailed Printout                   (-)

-------------------------------------------------------------------------
          Euler rotation of hyperfine tensor to g-tensor
-------------------------------------------------------------------------

-------------------------------------------------------------------
 Atom  |   Alpha    Beta    Gamma   |   Ax       Ay       Az 
       |          [degrees]         |           [MHz]         
-------------------------------------------------------------------
  1H       60.9      3.1    -61.2     -64.88  -108.69   -28.37
  2H       90.0     40.1    -89.5     -58.84   -22.81  -104.37
  3H      -89.9     34.0     88.7     -56.39   -21.18  -105.72
  0C       86.0      8.7    -86.3     231.07    -8.67    -9.39
-------------------------------------------------------------------


Maximum memory used throughout the entire EPRNMR-calculation: 67.6 MB

Timings for individual modules:

Sum of individual times         ...       15.786 sec (=   0.263 min)
GTO integral calculation        ...        2.114 sec (=   0.035 min)  13.4 %
Spin-Orbit-Coupling Matrices    ...        1.930 sec (=   0.032 min)  12.2 %
SCF iterations                  ...        5.850 sec (=   0.098 min)  37.1 %
EPR/NMR calculation             ...        5.891 sec (=   0.098 min)  37.3 %
                             ****ORCA TERMINATED NORMALLY****
TOTAL RUN TIME: 0 days 0 hours 0 minutes 18 seconds 32 msec
