Job execution start: Mon Oct 24 19:42:44 CEST 2022
Shared library path: /home/cs681498/orca:/opt/MPI/openmpi-4.1.1/linux/gcc_4.8.5/lib:/opt/MPI/openmpi-4.1.1/linux/gcc_4.8.5/lib/lib32
Slurm Job ID is: 30556406
Slurm Job name is: 12110
nrm082

                                 *****************
                                 * O   R   C   A *
                                 *****************

                                            #,                                       
                                            ###                                      
                                            ####                                     
                                            #####                                    
                                            ######                                   
                                           ########,                                 
                                     ,,################,,,,,                         
                               ,,#################################,,                 
                          ,,##########################################,,             
                       ,#########################################, ''#####,          
                    ,#############################################,,   '####,        
                  ,##################################################,,,,####,       
                ,###########''''           ''''###############################       
              ,#####''   ,,,,##########,,,,          '''####'''          '####       
            ,##' ,,,,###########################,,,                        '##       
           ' ,,###''''                  '''############,,,                           
         ,,##''                                '''############,,,,        ,,,,,,###''
      ,#''                                            '''#######################'''  
     '                                                          ''''####''''         
             ,#######,   #######,   ,#######,      ##                                
            ,#'     '#,  ##    ##  ,#'     '#,    #''#        ######   ,####,        
            ##       ##  ##   ,#'  ##            #'  '#       #        #'  '#        
            ##       ##  #######   ##           ,######,      #####,   #    #        
            '#,     ,#'  ##    ##  '#,     ,#' ,#      #,         ##   #,  ,#        
             '#######'   ##     ##  '#######'  #'      '#     #####' # '####'        



                  #######################################################
                  #                        -***-                        #
                  #          Department of theory and spectroscopy      #
                  #    Directorship and core code : Frank Neese         #
                  #        Max Planck Institute fuer Kohlenforschung    #
                  #                Kaiser Wilhelm Platz 1               #
                  #                 D-45470 Muelheim/Ruhr               #
                  #                      Germany                        #
                  #                                                     #
                  #                  All rights reserved                #
                  #                        -***-                        #
                  #######################################################


                         Program Version 5.0.3 -  RELEASE  -


 With contributions from (in alphabetic order):
   Daniel Aravena         : Magnetic Suceptibility
   Michael Atanasov       : Ab Initio Ligand Field Theory (pilot matlab implementation)
   Alexander A. Auer      : GIAO ZORA, VPT2 properties, NMR spectrum
   Ute Becker             : Parallelization
   Giovanni Bistoni       : ED, misc. LED, open-shell LED, HFLD
   Martin Brehm           : Molecular dynamics
   Dmytro Bykov           : SCF Hessian
   Vijay G. Chilkuri      : MRCI spin determinant printing, contributions to CSF-ICE
   Dipayan Datta          : RHF DLPNO-CCSD density
   Achintya Kumar Dutta   : EOM-CC, STEOM-CC
   Dmitry Ganyushin       : Spin-Orbit,Spin-Spin,Magnetic field MRCI
   Miquel Garcia          : C-PCM and meta-GGA Hessian, CC/C-PCM, Gaussian charge scheme
   Yang Guo               : DLPNO-NEVPT2, F12-NEVPT2, CIM, IAO-localization
   Andreas Hansen         : Spin unrestricted coupled pair/coupled cluster methods
   Benjamin Helmich-Paris : MC-RPA, TRAH-SCF, COSX integrals
   Lee Huntington         : MR-EOM, pCC
   Robert Izsak           : Overlap fitted RIJCOSX, COSX-SCS-MP3, EOM
   Marcus Kettner         : VPT2
   Christian Kollmar      : KDIIS, OOCD, Brueckner-CCSD(T), CCSD density, CASPT2, CASPT2-K
   Simone Kossmann        : Meta GGA functionals, TD-DFT gradient, OOMP2, MP2 Hessian
   Martin Krupicka        : Initial AUTO-CI
   Lucas Lang             : DCDCAS
   Marvin Lechner         : AUTO-CI (C++ implementation), FIC-MRCC
   Dagmar Lenk            : GEPOL surface, SMD
   Dimitrios Liakos       : Extrapolation schemes; Compound Job, initial MDCI parallelization
   Dimitrios Manganas     : Further ROCIS development; embedding schemes
   Dimitrios Pantazis     : SARC Basis sets
   Anastasios Papadopoulos: AUTO-CI, single reference methods and gradients
   Taras Petrenko         : DFT Hessian,TD-DFT gradient, ASA, ECA, R-Raman, ABS, FL, XAS/XES, NRVS
   Peter Pinski           : DLPNO-MP2, DLPNO-MP2 Gradient
   Christoph Reimann      : Effective Core Potentials
   Marius Retegan         : Local ZFS, SOC
   Christoph Riplinger    : Optimizer, TS searches, QM/MM, DLPNO-CCSD(T), (RO)-DLPNO pert. Triples
   Tobias Risthaus        : Range-separated hybrids, TD-DFT gradient, RPA, STAB
   Michael Roemelt        : Original ROCIS implementation
   Masaaki Saitow         : Open-shell DLPNO-CCSD energy and density
   Barbara Sandhoefer     : DKH picture change effects
   Avijit Sen             : IP-ROCIS
   Kantharuban Sivalingam : CASSCF convergence, NEVPT2, FIC-MRCI
   Bernardo de Souza      : ESD, SOC TD-DFT
   Georgi Stoychev        : AutoAux, RI-MP2 NMR, DLPNO-MP2 response
   Willem Van den Heuvel  : Paramagnetic NMR
   Boris Wezisla          : Elementary symmetry handling
   Frank Wennmohs         : Technical directorship


 We gratefully acknowledge several colleagues who have allowed us to
 interface, adapt or use parts of their codes:
   Stefan Grimme, W. Hujo, H. Kruse, P. Pracht,  : VdW corrections, initial TS optimization,
                  C. Bannwarth, S. Ehlert          DFT functionals, gCP, sTDA/sTD-DF
   Ed Valeev, F. Pavosevic, A. Kumar             : LibInt (2-el integral package), F12 methods
   Garnet Chan, S. Sharma, J. Yang, R. Olivares  : DMRG
   Ulf Ekstrom                                   : XCFun DFT Library
   Mihaly Kallay                                 : mrcc  (arbitrary order and MRCC methods)
   Jiri Pittner, Ondrej Demel                    : Mk-CCSD
   Frank Weinhold                                : gennbo (NPA and NBO analysis)
   Christopher J. Cramer and Donald G. Truhlar   : smd solvation model
   Lars Goerigk                                  : TD-DFT with DH, B97 family of functionals
   V. Asgeirsson, H. Jonsson                     : NEB implementation
   FAccTs GmbH                                   : IRC, NEB, NEB-TS, DLPNO-Multilevel, CI-OPT
                                                   MM, QMMM, 2- and 3-layer-ONIOM, Crystal-QMMM,
                                                   LR-CPCM, SF, NACMEs, symmetry and pop. for TD-DFT,
                                                   nearIR, NL-DFT gradient (VV10), updates on ESD,
                                                   ML-optimized integration grids
   S Lehtola, MJT Oliveira, MAL Marques          : LibXC Library
   Liviu Ungur et al                             : ANISO software


 Your calculation uses the libint2 library for the computation of 2-el integrals
 For citations please refer to: http://libint.valeyev.net

 Your ORCA version has been built with support for libXC version: 5.1.0
 For citations please refer to: https://tddft.org/programs/libxc/

 This ORCA versions uses:
   CBLAS   interface :  Fast vector & matrix operations
   LAPACKE interface :  Fast linear algebra routines
   SCALAPACK package :  Parallel linear algebra routines
   Shared memory     :  Shared parallel matrices
   BLAS/LAPACK       :  OpenBLAS 0.3.15  USE64BITINT DYNAMIC_ARCH NO_AFFINITY SkylakeX SINGLE_THREADED
        Core in use  :  SkylakeX
   Copyright (c) 2011-2014, The OpenBLAS Project


================================================================================

----- Orbital basis set information -----
Your calculation utilizes the basis: EPR-III
   V. Barone, in Recent Advances in Density Functional Methods, Part 1 (ed. D. P. Chong), World Scientific, Singapore, 1995, p. 287.
   N. Rega, M. Cossi and V. Barone, J. Chem. Phys. 105, 11060 (1996).

----- AuxJ basis set information -----
Your calculation utilizes the AutoAux generation procedure.
  G. L. Stoychev, A. A. Auer, F. Neese, J. Chem. Theory Comput. 13, 554 (2017)

----- AuxC basis set information -----
Your calculation utilizes the AutoAux generation procedure.
  G. L. Stoychev, A. A. Auer, F. Neese, J. Chem. Theory Comput. 13, 554 (2017)

----- AuxJK basis set information -----
Your calculation utilizes the AutoAux generation procedure.
  G. L. Stoychev, A. A. Auer, F. Neese, J. Chem. Theory Comput. 13, 554 (2017)

================================================================================
                                        WARNINGS
                       Please study these warnings very carefully!
================================================================================


WARNING: your system is open-shell and RHF/RKS was chosen
  ===> : WILL SWITCH to UHF/UKS


INFO   : the flag for use of the SHARK integral package has been found!

================================================================================
                                       INPUT FILE
================================================================================
NAME = /home/rwth0701/scratch/cs681498/orcajob__30556406-odBw/12110.inp
|  1> !B3LYP EPR-III Autoaux
|  2> !PAL4
|  3> 
|  4> * xyz 0 2
|  5>  C    -51.5176604092    -72.8946357645    -23.5395828059
|  6>  H    -51.5386521408    -71.8016120260    -23.5004232522
|  7>  H    -52.5092409124    -73.5586844071    -23.5744427881
|  8>  H    -50.5321831214    -73.3003332607    -23.5641772362
|  9> *
| 10> 
| 11> %EPRNMR
| 12>         GTENSOR   TRUE
| 13>         NUCLEI    = ALL H {AISO, ADIP, AORB}
| 14>         NUCLEI    = ALL C {AISO, ADIP, AORB}
| 15> END
| 16> 
| 17> 
| 18>                          ****END OF INPUT****
================================================================================

                       ****************************
                       * Single Point Calculation *
                       ****************************

---------------------------------
CARTESIAN COORDINATES (ANGSTROEM)
---------------------------------
  C    -51.517660  -72.894636  -23.539583
  H    -51.538652  -71.801612  -23.500423
  H    -52.509241  -73.558684  -23.574443
  H    -50.532183  -73.300333  -23.564177

----------------------------
CARTESIAN COORDINATES (A.U.)
----------------------------
  NO LB      ZA    FRAG     MASS         X           Y           Z
   0 C     6.0000    0    12.011  -97.354269  -137.750898  -44.483365
   1 H     1.0000    0     1.008  -97.393938  -135.685383  -44.409364
   2 H     1.0000    0     1.008  -99.228085  -139.005768  -44.549241
   3 H     1.0000    0     1.008  -95.491987  -138.517555  -44.529842

--------------------------------
INTERNAL COORDINATES (ANGSTROEM)
--------------------------------
 C      0   0   0     0.000000000000     0.00000000     0.00000000
 H      1   0   0     1.093926421825     0.00000000     0.00000000
 H      1   2   0     1.193904398360   122.74138396     0.00000000
 H      1   2   3     1.066002265098   113.50506334   178.77959463

---------------------------
INTERNAL COORDINATES (A.U.)
---------------------------
 C      0   0   0     0.000000000000     0.00000000     0.00000000
 H      1   0   0     2.067221347909     0.00000000     0.00000000
 H      1   2   0     2.256152342985   122.74138396     0.00000000
 H      1   2   3     2.014452339175   113.50506334   178.77959463

---------------------
BASIS SET INFORMATION
---------------------
There are 2 groups of distinct atoms

 Group   1 Type C   : 12s8p2d1f contracted to 8s5p2d1f pattern {51111111/41111/11/1}
 Group   2 Type H   : 7s2p contracted to 5s2p pattern {31111/11}

Atom   0C    basis set group =>   1
Atom   1H    basis set group =>   2
Atom   2H    basis set group =>   2
Atom   3H    basis set group =>   2
---------------------------------
AUXILIARY/J BASIS SET INFORMATION
---------------------------------
There are 2 groups of distinct atoms

 Group   1 Type C   : 20s17p16d8f3g contracted to 20s17p16d8f3g pattern {11111111111111111111/11111111111111111/1111111111111111/11111111/111}
 Group   2 Type H   : 17s7p3d contracted to 17s7p3d pattern {11111111111111111/1111111/111}

Atom   0C    basis set group =>   1
Atom   1H    basis set group =>   2
Atom   2H    basis set group =>   2
Atom   3H    basis set group =>   2
---------------------------------
AUXILIARY/C BASIS SET INFORMATION
---------------------------------
There are 2 groups of distinct atoms

 Group   1 Type C   : 20s17p16d8f3g contracted to 20s17p16d8f3g pattern {11111111111111111111/11111111111111111/1111111111111111/11111111/111}
 Group   2 Type H   : 17s7p3d contracted to 17s7p3d pattern {11111111111111111/1111111/111}

Atom   0C    basis set group =>   1
Atom   1H    basis set group =>   2
Atom   2H    basis set group =>   2
Atom   3H    basis set group =>   2
----------------------------------
AUXILIARY/JK BASIS SET INFORMATION
----------------------------------
There are 2 groups of distinct atoms

 Group   1 Type C   : 20s17p16d8f3g contracted to 20s17p16d8f3g pattern {11111111111111111111/11111111111111111/1111111111111111/11111111/111}
 Group   2 Type H   : 17s7p3d contracted to 17s7p3d pattern {11111111111111111/1111111/111}

Atom   0C    basis set group =>   1
Atom   1H    basis set group =>   2
Atom   2H    basis set group =>   2
Atom   3H    basis set group =>   2


           ************************************************************
           *        Program running with 4 parallel MPI-processes     *
           *              working on a common directory               *
           ************************************************************
------------------------------------------------------------------------------
                           ORCA GTO INTEGRAL CALCULATION
                           -- RI-GTO INTEGRALS CHOSEN --
------------------------------------------------------------------------------
------------------------------------------------------------------------------
                   ___                                                        
                  /   \      - P O W E R E D   B Y -                         
                 /     \                                                     
                 |  |  |   _    _      __       _____    __    __             
                 |  |  |  | |  | |    /  \     |  _  \  |  |  /  |          
                  \  \/   | |  | |   /    \    | | | |  |  | /  /          
                 / \  \   | |__| |  /  /\  \   | |_| |  |  |/  /          
                |  |  |   |  __  | /  /__\  \  |    /   |      \           
                |  |  |   | |  | | |   __   |  |    \   |  |\   \          
                \     /   | |  | | |  |  |  |  | |\  \  |  | \   \       
                 \___/    |_|  |_| |__|  |__|  |_| \__\ |__|  \__/        
                                                                              
                      - O R C A' S   B I G   F R I E N D -                    
                                      &                                       
                       - I N T E G R A L  F E E D E R -                       
                                                                              
 v1 FN, 2020, v2 2021                                                         
------------------------------------------------------------------------------


Reading SHARK input file /home/rwth0701/scratch/cs681498/orcajob__30556406-odBw/12110.SHARKINP.tmp ... ok
----------------------
SHARK INTEGRAL PACKAGE
----------------------

Number of atoms                             ...      4
Number of basis functions                   ...     73
Number of shells                            ...     37
Maximum angular momentum                    ...      3
Integral batch strategy                     ... SHARK/LIBINT Hybrid
RI-J (if used) integral strategy            ... SPLIT-RIJ (Revised 2003 algorithm where possible)
Printlevel                                  ...      1
Contraction scheme used                     ... SEGMENTED contraction
Coulomb Range Separation                    ... NOT USED
Exchange Range Separation                   ... NOT USED
Finite Nucleus Model                        ... NOT USED
Auxiliary Coulomb fitting basis             ... AVAILABLE
   # of basis functions in Aux-J            ...    393
   # of shells in Aux-J                     ...    145
   Maximum angular momentum in Aux-J        ...      4
Auxiliary J/K fitting basis                 ... AVAILABLE
   # of basis functions in Aux-JK           ...    393
   # of shells in Aux-JK                    ...    145
   Maximum angular momentum in Aux-JK       ...      4
Auxiliary Correlation fitting basis         ... AVAILABLE
   # of basis functions in Aux-C            ...    393
   # of shells in Aux-C                     ...    145
   Maximum angular momentum in Aux-C        ...      4
Auxiliary 'external' fitting basis          ... NOT available
Integral threshold                          ...     1.000000e-10
Primitive cut-off                           ...     1.000000e-11
Primitive pair pre-selection threshold      ...     1.000000e-11

Calculating pre-screening integrals         ... done (  0.0 sec) Dimension = 37
Organizing shell pair data                  ... done (  0.0 sec)
Shell pair information
Total number of shell pairs                 ...       703
Shell pairs after pre-screening             ...       688
Total number of primitive shell pairs       ...      1300
Primitive shell pairs kept                  ...      1182
          la=0 lb=0:    261 shell pairs
          la=1 lb=0:    253 shell pairs
          la=1 lb=1:     66 shell pairs
          la=2 lb=0:     46 shell pairs
          la=2 lb=1:     22 shell pairs
          la=2 lb=2:      3 shell pairs
          la=3 lb=0:     23 shell pairs
          la=3 lb=1:     11 shell pairs
          la=3 lb=2:      2 shell pairs
          la=3 lb=3:      1 shell pairs

Calculating one electron integrals          ... done (  0.0 sec)
Calculating RI/J V-Matrix + Cholesky decomp.... done (  0.1 sec)
Calculating RI/JK V-Matrix + Cholesky decomp... done (  0.1 sec)
Calculating RI/C V-Matrix + Cholesky decomp.... done (  0.1 sec)
Calculating Nuclear repulsion               ... done (  0.0 sec) ENN=      9.362102007535 Eh

SHARK setup successfully completed in   0.4 seconds

Maximum memory used throughout the entire GTOINT-calculation: 13.7 MB


           ************************************************************
           *        Program running with 4 parallel MPI-processes     *
           *              working on a common directory               *
           ************************************************************
-------------------------------------------------------------------------------
                                 ORCA SCF
-------------------------------------------------------------------------------

------------
SCF SETTINGS
------------
Hamiltonian:
 Density Functional     Method          .... DFT(GTOs)
 Exchange Functional    Exchange        .... B88
   X-Alpha parameter    XAlpha          ....  0.666667
   Becke's b parameter  XBeta           ....  0.004200
 Correlation Functional Correlation     .... LYP
 LDA part of GGA corr.  LDAOpt          .... VWN-5
 Gradients option       PostSCFGGA      .... off
 Hybrid DFT is turned on
   Fraction HF Exchange ScalHFX         ....  0.200000
   Scaling of DF-GGA-X  ScalDFX         ....  0.720000
   Scaling of DF-GGA-C  ScalDFC         ....  0.810000
   Scaling of DF-LDA-C  ScalLDAC        ....  1.000000
   Perturbative correction              ....  0.000000
   Density functional embedding theory  .... OFF
   NL short-range parameter             ....  4.800000
 RI-approximation to the Coulomb term is turned on
   Number of AuxJ basis functions       .... 393
   RIJ-COSX (HFX calculated with COS-X)).... on


General Settings:
 Integral files         IntName         .... /home/rwth0701/scratch/cs681498/orcajob__30556406-odBw/12110
 Hartree-Fock type      HFTyp           .... UHF
 Total Charge           Charge          ....    0
 Multiplicity           Mult            ....    2
 Number of Electrons    NEL             ....    9
 Basis Dimension        Dim             ....   73
 Nuclear Repulsion      ENuc            ....      9.3621020075 Eh

Convergence Acceleration:
 DIIS                   CNVDIIS         .... on
   Start iteration      DIISMaxIt       ....    12
   Startup error        DIISStart       ....  0.200000
   # of expansion vecs  DIISMaxEq       ....     5
   Bias factor          DIISBfac        ....   1.050
   Max. coefficient     DIISMaxC        ....  10.000
 Trust-Rad. Augm. Hess. CNVTRAH         .... auto
   Auto Start mean grad. ratio tolernc. ....  1.125000
   Auto Start start iteration           ....    20
   Auto Start num. interpolation iter.  ....    10
   Max. Number of Micro iterations      ....    16
   Max. Number of Macro iterations      .... Maxiter - #DIIS iter
   Number of Davidson start vectors     ....     2
   Converg. threshold I  (grad. norm)   ....   5.000e-05
   Converg. threshold II (energy diff.) ....   1.000e-06
   Grad. Scal. Fac. for Micro threshold ....   0.100
   Minimum threshold for Micro iter.    ....   0.010
   NR start threshold (gradient norm)   ....   0.001
   Initial trust radius                 ....   0.400
   Minimum AH scaling param. (alpha)    ....   1.000
   Maximum AH scaling param. (alpha)    .... 1000.000
   Orbital update algorithm             .... Taylor
   White noise on init. David. guess    .... on
   Maximum white noise                  ....   0.010
   Quad. conv. algorithm                .... NR
 SOSCF                  CNVSOSCF        .... off
 Level Shifting         CNVShift        .... on
   Level shift para.    LevelShift      ....    0.2500
   Turn off err/grad.   ShiftErr        ....    0.0010
 Zerner damping         CNVZerner       .... off
 Static damping         CNVDamp         .... on
   Fraction old density DampFac         ....    0.7000
   Max. Damping (<1)    DampMax         ....    0.9800
   Min. Damping (>=0)   DampMin         ....    0.0000
   Turn off err/grad.   DampErr         ....    0.1000
 Fernandez-Rico         CNVRico         .... off

SCF Procedure:
 Maximum # iterations   MaxIter         ....   125
 SCF integral mode      SCFMode         .... Direct
   Integral package                     .... SHARK and LIBINT hybrid scheme
 Reset frequency        DirectResetFreq ....    20
 Integral Threshold     Thresh          ....  1.000e-10 Eh
 Primitive CutOff       TCut            ....  1.000e-11 Eh

Convergence Tolerance:
 Convergence Check Mode ConvCheckMode   .... Total+1el-Energy
 Convergence forced     ConvForced      .... 0
 Energy Change          TolE            ....  1.000e-06 Eh
 1-El. energy change                    ....  1.000e-03 Eh
 DIIS Error             TolErr          ....  1.000e-06


Diagonalization of the overlap matrix:
Smallest eigenvalue                        ... 1.735e-03
Time for diagonalization                   ...    0.002 sec
Threshold for overlap eigenvalues          ... 1.000e-08
Number of eigenvalues below threshold      ... 0
Time for construction of square roots      ...    0.012 sec
Total time needed                          ...    0.014 sec

Time for model grid setup =    0.057 sec

------------------------------
INITIAL GUESS: MODEL POTENTIAL
------------------------------
Loading Hartree-Fock densities                     ... done
Calculating cut-offs                               ... done
Initializing the effective Hamiltonian             ... done
Setting up the integral package (SHARK)            ... done
Starting the Coulomb interaction                   ... done (   0.0 sec)
Reading the grid                                   ... done
Mapping shells                                     ... done
Starting the XC term evaluation                    ... done (   0.0 sec)
  promolecular density results
     # of electrons  =      8.998511100
     EX              =     -5.954445462
     EC              =     -0.259028520
     EX+EC           =     -6.213473982
Transforming the Hamiltonian                       ... done (   0.0 sec)
Diagonalizing the Hamiltonian                      ... done (   0.0 sec)
Back transforming the eigenvectors                 ... done (   0.0 sec)
Now organizing SCF variables                       ... done
                      ------------------
                      INITIAL GUESS DONE (   0.1 sec)
                      ------------------
-------------------
DFT GRID GENERATION
-------------------

General Integration Accuracy     IntAcc      ... 4.388
Radial Grid Type                 RadialGrid  ... OptM3 with GC (2021)
Angular Grid (max. ang.)         AngularGrid ... 4 (Lebedev-302)
Angular grid pruning method      GridPruning ... 4 (adaptive)
Weight generation scheme         WeightScheme... Becke
Basis function cutoff            BFCut       ... 1.0000e-10
Integration weight cutoff        WCut        ... 1.0000e-14
Angular grids for H and He will be reduced by one unit
Partially contracted basis set               ... off
Rotationally invariant grid construction     ... off

Total number of grid points                  ...    17040
Total number of batches                      ...      269
Average number of points per batch           ...       63
Average number of grid points per atom       ...     4260
Time for grid setup =    0.142 sec

--------------------
COSX GRID GENERATION
--------------------

GRIDX 1
-------
General Integration Accuracy     IntAcc      ... 3.816
Radial Grid Type                 RadialGrid  ... OptM3 with GC (2021)
Angular Grid (max. ang.)         AngularGrid ... 1 (Lebedev-50)
Angular grid pruning method      GridPruning ... 4 (adaptive)
Weight generation scheme         WeightScheme... Becke
Basis function cutoff            BFCut       ... 1.0000e-10
Integration weight cutoff        WCut        ... 1.0000e-14
Angular grids for H and He will be reduced by one unit
Partially contracted basis set               ... on
Rotationally invariant grid construction     ... off

Total number of grid points                  ...     2140
Total number of batches                      ...       35
Average number of points per batch           ...       61
Average number of grid points per atom       ...      535
UseSFitting                                  ... on

GRIDX 2
-------
General Integration Accuracy     IntAcc      ... 4.020
Radial Grid Type                 RadialGrid  ... OptM3 with GC (2021)
Angular Grid (max. ang.)         AngularGrid ... 2 (Lebedev-110)
Angular grid pruning method      GridPruning ... 4 (adaptive)
Weight generation scheme         WeightScheme... Becke
Basis function cutoff            BFCut       ... 1.0000e-10
Integration weight cutoff        WCut        ... 1.0000e-14
Angular grids for H and He will be reduced by one unit
Partially contracted basis set               ... on
Rotationally invariant grid construction     ... off

Total number of grid points                  ...     5037
Total number of batches                      ...       80
Average number of points per batch           ...       62
Average number of grid points per atom       ...     1259
UseSFitting                                  ... on

GRIDX 3
-------
General Integration Accuracy     IntAcc      ... 4.338
Radial Grid Type                 RadialGrid  ... OptM3 with GC (2021)
Angular Grid (max. ang.)         AngularGrid ... 3 (Lebedev-194)
Angular grid pruning method      GridPruning ... 4 (adaptive)
Weight generation scheme         WeightScheme... Becke
Basis function cutoff            BFCut       ... 1.0000e-10
Integration weight cutoff        WCut        ... 1.0000e-14
Angular grids for H and He will be reduced by one unit
Partially contracted basis set               ... on
Rotationally invariant grid construction     ... off

Total number of grid points                  ...    11734
Total number of batches                      ...      186
Average number of points per batch           ...       63
Average number of grid points per atom       ...     2934
UseSFitting                                  ... on

Time for X-Grid setup             =    0.346 sec

--------------
SCF ITERATIONS
--------------
ITER       Energy         Delta-E        Max-DP      RMS-DP      [F,P]     Damp
               ***  Starting incremental Fock matrix formation  ***
  0    -39.7825598630   0.000000000000 0.01428942  0.00047857  0.0841354 0.7000
  1    -39.7994833631  -0.016923500064 0.00907635  0.00035842  0.0441039 0.7000
                               ***Turning on DIIS***
  2    -39.8068823192  -0.007398956133 0.01690118  0.00062293  0.0181006 0.0000
  3    -39.8169741102  -0.010091791009 0.00837000  0.00027327  0.0273020 0.0000
  4    -39.8201752838  -0.003201173632 0.00292756  0.00007687  0.0055998 0.0000
  5    -39.8203064634  -0.000131179610 0.00106993  0.00003361  0.0019171 0.0000
  6    -39.8203253868  -0.000018923312 0.00090984  0.00002709  0.0008200 0.0000
               *** Restarting incremental Fock matrix formation ***
                                   *** Resetting DIIS ***
                 **** Energy Check signals convergence ****

               *****************************************************
               *                     SUCCESS                       *
               *           SCF CONVERGED AFTER   7 CYCLES          *
               *****************************************************

Old exchange energy                            =     -1.233088466 Eh
New exchange energy                            =     -1.233088236 Eh
Exchange energy change after final integration =      0.000000231 Eh
Total energy after final integration           =    -39.820324836 Eh
Final COS-X integration done in                =     0.176 sec

----------------
TOTAL SCF ENERGY
----------------

Total Energy       :          -39.82032484 Eh           -1083.56613 eV

Components:
Nuclear Repulsion  :            9.36210201 Eh             254.75575 eV
Electronic Energy  :          -49.18242684 Eh           -1338.32187 eV
One Electron Energy:          -71.06506041 Eh           -1933.77861 eV
Two Electron Energy:           21.88263357 Eh             595.45673 eV
Max COSX asymmetry :            0.00000006 Eh               0.00000 eV

Virial components:
Potential Energy   :          -79.30846593 Eh           -2158.09307 eV
Kinetic Energy     :           39.48814109 Eh            1074.52695 eV
Virial Ratio       :            2.00841224


DFT components:
N(Alpha)           :        4.999999881666 electrons
N(Beta)            :        4.000000793955 electrons
N(Total)           :        9.000000675621 electrons
E(X)               :       -4.883668028374 Eh       
E(C)               :       -0.307876996183 Eh       
E(XC)              :       -5.191545024558 Eh       
DFET-embed. en.    :        0.000000000000 Eh       

---------------
SCF CONVERGENCE
---------------

  Last Energy change         ...    3.2000e-07  Tolerance :   1.0000e-06
  Last MAX-Density change    ...    0.0000e+00  Tolerance :   1.0000e-05
  Last RMS-Density change    ...    0.0000e+00  Tolerance :   1.0000e-06
  Last DIIS Error            ...    1.1375e-04  Tolerance :   1.0000e-06

             **** THE GBW FILE WAS UPDATED (/home/rwth0701/scratch/cs681498/orcajob__30556406-odBw/12110.gbw) ****
             **** DENSITY /home/rwth0701/scratch/cs681498/orcajob__30556406-odBw/12110.scfp WAS UPDATED ****
             **** ENERGY FILE WAS UPDATED (/home/rwth0701/scratch/cs681498/orcajob__30556406-odBw/12110.en.tmp) ****
----------------------
UHF SPIN CONTAMINATION
----------------------

Warning: in a DFT calculation there is little theoretical justification to 
         calculate <S**2> as in Hartree-Fock theory. We will do it anyways
         but you should keep in mind that the values have only limited relevance

Expectation value of <S**2>     :     0.754081
Ideal value S*(S+1) for S=0.5   :     0.750000
Deviation                       :     0.004081

             **** THE GBW FILE WAS UPDATED (/home/rwth0701/scratch/cs681498/orcajob__30556406-odBw/12110.gbw) ****
             **** DENSITY /home/rwth0701/scratch/cs681498/orcajob__30556406-odBw/12110.scfp WAS UPDATED ****
----------------
ORBITAL ENERGIES
----------------
                 SPIN UP ORBITALS
  NO   OCC          E(Eh)            E(eV) 
   0   1.0000     -10.195062      -277.4217 
   1   1.0000      -0.679691       -18.4953 
   2   1.0000      -0.416841       -11.3428 
   3   1.0000      -0.411765       -11.2047 
   4   1.0000      -0.234950        -6.3933 
   5   0.0000      -0.001023        -0.0278 
   6   0.0000       0.035599         0.9687 
   7   0.0000       0.037304         1.0151 
   8   0.0000       0.047192         1.2842 
   9   0.0000       0.075015         2.0413 
  10   0.0000       0.089283         2.4295 
  11   0.0000       0.096750         2.6327 
  12   0.0000       0.220718         6.0060 
  13   0.0000       0.226990         6.1767 
  14   0.0000       0.241317         6.5666 
  15   0.0000       0.275436         7.4950 
  16   0.0000       0.285889         7.7794 
  17   0.0000       0.301043         8.1918 
  18   0.0000       0.339866         9.2482 
  19   0.0000       0.542644        14.7661 
  20   0.0000       0.564878        15.3711 
  21   0.0000       0.739535        20.1238 
  22   0.0000       0.752932        20.4883 
  23   0.0000       0.773494        21.0479 
  24   0.0000       0.806415        21.9437 
  25   0.0000       0.850056        23.1312 
  26   0.0000       0.902561        24.5599 
  27   0.0000       0.937401        25.5080 
  28   0.0000       0.944162        25.6919 
  29   0.0000       1.058942        28.8153 
  30   0.0000       1.067669        29.0528 
  31   0.0000       1.099032        29.9062 
  32   0.0000       1.154436        31.4138 
  33   0.0000       1.160720        31.5848 
  34   0.0000       1.435508        39.0622 
  35   0.0000       1.447358        39.3846 
  36   0.0000       1.466514        39.9059 
  37   0.0000       1.694789        46.1176 
  38   0.0000       1.726221        46.9729 
  39   0.0000       1.735674        47.2301 
  40   0.0000       2.723819        74.1189 
  41   0.0000       2.742127        74.6171 
  42   0.0000       2.882225        78.4293 
  43   0.0000       2.899553        78.9009 
  44   0.0000       2.942759        80.0765 
  45   0.0000       2.964393        80.6652 
  46   0.0000       2.967050        80.7375 
  47   0.0000       3.144158        85.5569 
  48   0.0000       3.173687        86.3604 
  49   0.0000       3.250791        88.4585 
  50   0.0000       3.275546        89.1322 
  51   0.0000       3.587020        97.6078 
  52   0.0000       3.720960       101.2525 
  53   0.0000       3.786776       103.0434 
  54   0.0000       3.859890       105.0330 
  55   0.0000       3.921681       106.7144 
  56   0.0000       4.038116       109.8827 
  57   0.0000       4.077030       110.9416 
  58   0.0000       4.077403       110.9518 
  59   0.0000       4.112011       111.8935 
  60   0.0000       4.531947       123.3205 
  61   0.0000       4.953211       134.7837 
  62   0.0000       5.192749       141.3019 
  63   0.0000       5.408661       147.1772 
  64   0.0000       5.477512       149.0507 
  65   0.0000       5.963875       162.2853 
  66   0.0000       6.092195       165.7770 
  67   0.0000       7.646019       208.0587 
  68   0.0000      29.016212       789.5713 
  69   0.0000      37.011200      1007.1259 
  70   0.0000      37.194596      1012.1164 
  71   0.0000      37.215408      1012.6827 
  72   0.0000     133.462824      3631.7081 

                 SPIN DOWN ORBITALS
  NO   OCC          E(Eh)            E(eV) 
   0   1.0000     -10.180437      -277.0238 
   1   1.0000      -0.639999       -17.4153 
   2   1.0000      -0.407558       -11.0902 
   3   1.0000      -0.402751       -10.9594 
   4   0.0000      -0.077034        -2.0962 
   5   0.0000       0.002633         0.0716 
   6   0.0000       0.035461         0.9649 
   7   0.0000       0.036908         1.0043 
   8   0.0000       0.060552         1.6477 
   9   0.0000       0.079366         2.1597 
  10   0.0000       0.089587         2.4378 
  11   0.0000       0.099971         2.7203 
  12   0.0000       0.221715         6.0332 
  13   0.0000       0.228118         6.2074 
  14   0.0000       0.257333         7.0024 
  15   0.0000       0.295265         8.0346 
  16   0.0000       0.306301         8.3349 
  17   0.0000       0.310081         8.4377 
  18   0.0000       0.352008         9.5786 
  19   0.0000       0.567382        15.4392 
  20   0.0000       0.592334        16.1182 
  21   0.0000       0.740374        20.1466 
  22   0.0000       0.753922        20.5153 
  23   0.0000       0.800475        21.7820 
  24   0.0000       0.804538        21.8926 
  25   0.0000       0.855359        23.2755 
  26   0.0000       0.906177        24.6583 
  27   0.0000       0.954846        25.9827 
  28   0.0000       0.961138        26.1539 
  29   0.0000       1.088431        29.6177 
  30   0.0000       1.113467        30.2990 
  31   0.0000       1.129293        30.7296 
  32   0.0000       1.165704        31.7204 
  33   0.0000       1.173512        31.9329 
  34   0.0000       1.450011        39.4568 
  35   0.0000       1.453353        39.5478 
  36   0.0000       1.481203        40.3056 
  37   0.0000       1.704574        46.3838 
  38   0.0000       1.734132        47.1881 
  39   0.0000       1.741349        47.3845 
  40   0.0000       2.764758        75.2329 
  41   0.0000       2.783257        75.7363 
  42   0.0000       2.899190        78.8910 
  43   0.0000       2.928565        79.6903 
  44   0.0000       2.966208        80.7146 
  45   0.0000       2.989344        81.3442 
  46   0.0000       3.020130        82.1819 
  47   0.0000       3.199333        87.0583 
  48   0.0000       3.225157        87.7610 
  49   0.0000       3.308570        90.0308 
  50   0.0000       3.334999        90.7499 
  51   0.0000       3.587922        97.6323 
  52   0.0000       3.779209       102.8375 
  53   0.0000       3.782641       102.9309 
  54   0.0000       3.870131       105.3116 
  55   0.0000       3.923408       106.7614 
  56   0.0000       4.053946       110.3135 
  57   0.0000       4.079081       110.9974 
  58   0.0000       4.081637       111.0670 
  59   0.0000       4.137973       112.6000 
  60   0.0000       4.531665       123.3129 
  61   0.0000       4.966546       135.1466 
  62   0.0000       5.199798       141.4937 
  63   0.0000       5.406856       147.1280 
  64   0.0000       5.474189       148.9603 
  65   0.0000       5.963479       162.2745 
  66   0.0000       6.095916       165.8783 
  67   0.0000       7.680711       209.0028 
  68   0.0000      29.043076       790.3023 
  69   0.0000      36.997548      1006.7545 
  70   0.0000      37.182306      1011.7820 
  71   0.0000      37.203696      1012.3640 
  72   0.0000     133.470801      3631.9251 

                    ********************************
                    * MULLIKEN POPULATION ANALYSIS *
                    ********************************

--------------------------------------------
MULLIKEN ATOMIC CHARGES AND SPIN POPULATIONS
--------------------------------------------
   0 C :   -0.429099    1.110528
   1 H :    0.141117   -0.035464
   2 H :    0.143637   -0.041380
   3 H :    0.144346   -0.033683
Sum of atomic charges         :   -0.0000000
Sum of atomic spin populations:    1.0000000

-----------------------------------------------------
MULLIKEN REDUCED ORBITAL CHARGES AND SPIN POPULATIONS
-----------------------------------------------------
CHARGE
  0 C s       :     3.354847  s :     3.354847
      pz      :     0.969760  p :     3.046719
      px      :     1.035438
      py      :     1.041520
      dz2     :     0.005754  d :     0.024728
      dxz     :     0.000048
      dyz     :     0.000040
      dx2y2   :     0.010671
      dxy     :     0.008214
      f0      :     0.000011  f :     0.002806
      f+1     :     0.000703
      f-1     :     0.000650
      f+2     :     0.000006
      f-2     :     0.000004
      f+3     :     0.000084
      f-3     :     0.001350
  1 H s       :     0.832101  s :     0.832101
      pz      :     0.010395  p :     0.026782
      px      :     0.006607
      py      :     0.009780
  2 H s       :     0.833617  s :     0.833617
      pz      :     0.008951  p :     0.022746
      px      :     0.007587
      py      :     0.006208
  3 H s       :     0.827606  s :     0.827606
      pz      :     0.010935  p :     0.028048
      px      :     0.009766
      py      :     0.007347

SPIN
  0 C s       :     0.068481  s :     0.068481
      pz      :     0.967964  p :     1.046335
      px      :     0.038741
      py      :     0.039630
      dz2     :    -0.004747  d :    -0.002969
      dxz     :     0.000016
      dyz     :    -0.000017
      dx2y2   :     0.001059
      dxy     :     0.000720
      f0      :    -0.000003  f :    -0.001320
      f+1     :    -0.000634
      f-1     :    -0.000615
      f+2     :    -0.000002
      f-2     :    -0.000003
      f+3     :     0.000000
      f-3     :    -0.000063
  1 H s       :    -0.045352  s :    -0.045352
      pz      :     0.010382  p :     0.009888
      px      :    -0.000366
      py      :    -0.000128
  2 H s       :    -0.050062  s :    -0.050062
      pz      :     0.008936  p :     0.008681
      px      :    -0.000126
      py      :    -0.000128
  3 H s       :    -0.044098  s :    -0.044098
      pz      :     0.010919  p :     0.010414
      px      :    -0.000113
      py      :    -0.000392


                     *******************************
                     * LOEWDIN POPULATION ANALYSIS *
                     *******************************

-------------------------------------------
LOEWDIN ATOMIC CHARGES AND SPIN POPULATIONS
-------------------------------------------
   0 C :   -0.179227    0.923233
   1 H :    0.049999    0.029341
   2 H :    0.093078    0.013430
   3 H :    0.036151    0.033997

----------------------------------------------------
LOEWDIN REDUCED ORBITAL CHARGES AND SPIN POPULATIONS
----------------------------------------------------
CHARGE
  0 C s       :     2.910360  s :     2.910360
      pz      :     0.883012  p :     3.172169
      px      :     1.141128
      py      :     1.148029
      dz2     :     0.006774  d :     0.089523
      dxz     :     0.000135
      dyz     :     0.000082
      dx2y2   :     0.045046
      dxy     :     0.037486
      f0      :     0.000183  f :     0.007175
      f+1     :     0.002018
      f-1     :     0.001913
      f+2     :     0.000013
      f-2     :     0.000014
      f+3     :     0.000324
      f-3     :     0.002710
  1 H s       :     0.806241  s :     0.806241
      pz      :     0.041448  p :     0.143761
      px      :     0.030217
      py      :     0.072096
  2 H s       :     0.792781  s :     0.792781
      pz      :     0.031011  p :     0.114141
      px      :     0.049388
      py      :     0.033741
  3 H s       :     0.810779  s :     0.810779
      pz      :     0.044831  p :     0.153069
      px      :     0.068231
      py      :     0.040007

SPIN
  0 C s       :     0.021320  s :     0.021320
      pz      :     0.880989  p :     0.910860
      px      :     0.014205
      py      :     0.015666
      dz2     :    -0.004031  d :    -0.007609
      dxz     :     0.000013
      dyz     :    -0.000016
      dx2y2   :    -0.001898
      dxy     :    -0.001677
      f0      :     0.000156  f :    -0.001338
      f+1     :    -0.000599
      f-1     :    -0.000578
      f+2     :    -0.000003
      f-2     :    -0.000002
      f+3     :    -0.000021
      f-3     :    -0.000292
  1 H s       :    -0.017338  s :    -0.017338
      pz      :     0.041355  p :     0.046679
      px      :     0.000551
      py      :     0.004772
  2 H s       :    -0.022719  s :    -0.022719
      pz      :     0.030937  p :     0.036148
      px      :     0.003419
      py      :     0.001792
  3 H s       :    -0.016277  s :    -0.016277
      pz      :     0.044747  p :     0.050274
      px      :     0.004396
      py      :     0.001130


                      *****************************
                      * MAYER POPULATION ANALYSIS *
                      *****************************

  NA   - Mulliken gross atomic population
  ZA   - Total nuclear charge
  QA   - Mulliken gross atomic charge
  VA   - Mayer's total valence
  BVA  - Mayer's bonded valence
  FA   - Mayer's free valence

  ATOM       NA         ZA         QA         VA         BVA        FA
  0 C      6.4291     6.0000    -0.4291     3.8643     2.9154     0.9489
  1 H      0.8589     1.0000     0.1411     0.9801     0.9781     0.0020
  2 H      0.8564     1.0000     0.1436     0.9836     0.9811     0.0025
  3 H      0.8557     1.0000     0.1443     0.9798     0.9779     0.0019

  Mayer bond orders larger than 0.100000
B(  0-C ,  1-H ) :   0.9732 B(  0-C ,  2-H ) :   0.9694 B(  0-C ,  3-H ) :   0.9729 


-------
TIMINGS
-------

Total SCF time: 0 days 0 hours 0 min 5 sec 

Total time                  ....       5.248 sec
Sum of individual times     ....       4.584 sec  ( 87.3%)

Fock matrix formation       ....       3.772 sec  ( 71.9%)
  Split-RI-J                ....       0.388 sec  ( 10.3% of F)
  Chain of spheres X        ....       0.830 sec  ( 22.0% of F)
  XC integration            ....       1.586 sec  ( 42.0% of F)
    Basis function eval.    ....       0.098 sec  (  6.2% of XC)
    Density eval.           ....       0.108 sec  (  6.8% of XC)
    XC-Functional eval.     ....       0.094 sec  (  5.9% of XC)
    XC-Potential eval.      ....       0.141 sec  (  8.9% of XC)
Diagonalization             ....       0.051 sec  (  1.0%)
Density matrix formation    ....       0.010 sec  (  0.2%)
Population analysis         ....       0.090 sec  (  1.7%)
Initial guess               ....       0.057 sec  (  1.1%)
Orbital Transformation      ....       0.000 sec  (  0.0%)
Orbital Orthonormalization  ....       0.000 sec  (  0.0%)
DIIS solution               ....       0.059 sec  (  1.1%)
Grid generation             ....       0.545 sec  ( 10.4%)

Maximum memory used throughout the entire SCF-calculation: 59.0 MB

-------------------------   --------------------
FINAL SINGLE POINT ENERGY       -39.820324836035
-------------------------   --------------------

   --->>> g-tensor requested, so NeedSOC=true

                            ***************************************
                            *     ORCA property calculations      *
                            ***************************************

                                    ---------------------
                                    Active property flags
                                    ---------------------
   (+) Dipole Moment
   (+) g-tensor
   (+) Nuclear properties (Hyperfine,Quadrupole)
   (+) Spin-Orbit Integrals are needed


------------------------------------------------------------------------------
                       ORCA ELECTRIC PROPERTIES CALCULATION
------------------------------------------------------------------------------

Dipole Moment Calculation                       ... on
Quadrupole Moment Calculation                   ... off
Polarizability Calculation                      ... off
GBWName                                         ... /home/rwth0701/scratch/cs681498/orcajob__30556406-odBw/12110.gbw
Electron density                                ... /home/rwth0701/scratch/cs681498/orcajob__30556406-odBw/12110.scfp
The origin for moment calculation is the CENTER OF MASS  = (-97.357702, -137.747949 -44.485936)

-------------
DIPOLE MOMENT
-------------
                                X             Y             Z
Electronic contribution:      0.03552      -0.00933       0.00969
Nuclear contribution   :     -0.02031       0.01745      -0.01521
                        -----------------------------------------
Total Dipole Moment    :      0.01522       0.00811      -0.00552
                        -----------------------------------------
Magnitude (a.u.)       :      0.01811
Magnitude (Debye)      :      0.04602



--------------------
Rotational spectrum 
--------------------
 
Rotational constants in cm-1:    10.250950     7.862624     4.449952 
Rotational constants in MHz : 307315.759493 235715.551893 133406.206181 

 Dipole components along the rotational axes: 
x,y,z [a.u.] :     0.016935    -0.002607    -0.005854 
x,y,z [Debye]:     0.043044    -0.006627    -0.014880 

 


           ************************************************************
           *        Program running with 4 parallel MPI-processes     *
           *              working on a common directory               *
           ************************************************************
------------------------------------------------------------------------------
                         ORCA SPIN-ORBIT COUPLING CALCULATION
------------------------------------------------------------------------------

GBW file                                    ... /home/rwth0701/scratch/cs681498/orcajob__30556406-odBw/12110.gbw
Input density                               ... /home/rwth0701/scratch/cs681498/orcajob__30556406-odBw/12110.scfp
Output integrals                            ... /home/rwth0701/scratch/cs681498/orcajob__30556406-odBw/12110
Operator type                               ... Mean-field/Effective potential
   One-Electron Terms                       ... 1
   Coulomb Contribution                     ... 3
   Exchange Contribution                    ... 3
   Correlation Contribution                 ... 0
   Maximum number of centers                ... 4
SHARK 2-electron RIJ-SOMF                   ... done (  0.1 sec)
SHARK 1-electron  MaxCenter=4               ... done (  0.0 sec)
SHARK 2-electron DoJ,X=0,1 MaxCenter=1      ... done (  0.1 sec)

Maximum memory used throughout the entire SOC-calculation: 11.3 MB
Total time for SOC:  1.964


           ************************************************************
           *        Program running with 4 parallel MPI-processes     *
           *              working on a common directory               *
           ************************************************************
------------------------------------------------------------------------------
                                ORCA EPR/NMR CALCULATION
------------------------------------------------------------------------------

GBWName                      ... /home/rwth0701/scratch/cs681498/orcajob__30556406-odBw/12110.gbw
Electron density             ... /home/rwth0701/scratch/cs681498/orcajob__30556406-odBw/12110.scfp
Spin density                 ... /home/rwth0701/scratch/cs681498/orcajob__30556406-odBw/12110.scfr
Spin-orbit integrals         ... /home/rwth0701/scratch/cs681498/orcajob__30556406-odBw/12110
Treatment of gauge           ... GIAO (approximations 1/2el = 0,0)
Details of the CP(SCF) procedure:
       Solver   = POPLE   
       MaxIter  =    64   
       Tolerance=    1.000e-03
       COSX Grid=     1   
       Op-0     =   0-  4 =>   5- 72
       Op-1     =   0-  3 =>   4- 72
Multiplicity                 ... 2
g-tensor                     ... 1
NMR chemical shifts          ... 0
NMR spin-spin couplings      ... 0
NMR spectrum                 ... 0
Number of nuclei for epr/nmr ... 4
   Nucleus:   1H 
       Hyperfine : Isotope=    1 I=   0.500 P= 533.551
       Quadrupole: Isotope=    2 I=   1.000 Q=   0.003
       Spin-Orbit: Zeff=   1.000
       Nuclear Spin-Spin: Gn=   0.000
       EPRNMR Input: 
       rho(0)=N f(grad)=N a(iso)=Y a(dip)=Y a(orb)=Y sigma(nmr)=N spin-spin(nmr)=all-N,DSO-N,PSO-N,FC-N,SD-N
   Nucleus:   2H 
       Hyperfine : Isotope=    1 I=   0.500 P= 533.551
       Quadrupole: Isotope=    2 I=   1.000 Q=   0.003
       Spin-Orbit: Zeff=   1.000
       Nuclear Spin-Spin: Gn=   0.000
       EPRNMR Input: 
       rho(0)=N f(grad)=N a(iso)=Y a(dip)=Y a(orb)=Y sigma(nmr)=N spin-spin(nmr)=all-N,DSO-N,PSO-N,FC-N,SD-N
   Nucleus:   3H 
       Hyperfine : Isotope=    1 I=   0.500 P= 533.551
       Quadrupole: Isotope=    2 I=   1.000 Q=   0.003
       Spin-Orbit: Zeff=   1.000
       Nuclear Spin-Spin: Gn=   0.000
       EPRNMR Input: 
       rho(0)=N f(grad)=N a(iso)=Y a(dip)=Y a(orb)=Y sigma(nmr)=N spin-spin(nmr)=all-N,DSO-N,PSO-N,FC-N,SD-N
   Nucleus:   0C 
       Hyperfine : Isotope=   13 I=   0.500 P= 134.190
       Quadrupole: Isotope=   13 I=   0.500 Q=   0.000
       Spin-Orbit: Zeff=   3.600
       Nuclear Spin-Spin: Gn=   0.000
       EPRNMR Input: 
       rho(0)=N f(grad)=N a(iso)=Y a(dip)=Y a(orb)=Y sigma(nmr)=N spin-spin(nmr)=all-N,DSO-N,PSO-N,FC-N,SD-N
Forming RHS of the CP-SCF equations         ... 
Calculating right hand sides for GIAO treatment        ... 
  Entering RightHandSide GIAO. ScalHFX=    0.2000 NeedHFX=1
     -> 1-electron GIAO integrals will be done analytically
     -> RIJCOSX used in SCF. Same chosen for GIAO calculation.
     Making grid for GIAO integrations   ...

GRID GIAO
---------

General Integration Accuracy     IntAcc      ... 4.388
Radial Grid Type                 RadialGrid  ... OptM3 with GC (2021)
Angular Grid (max. ang.)         AngularGrid ... 4 (Lebedev-302)
Angular grid pruning method      GridPruning ... 4 (adaptive)
Weight generation scheme         WeightScheme... Becke
Basis function cutoff            BFCut       ... 1.0000e-10
Integration weight cutoff        WCut        ... 1.0000e-14
Angular grids for H and He will be reduced by one unit
Partially contracted basis set               ... off
Rotationally invariant grid construction     ... off

Total number of grid points                  ...    17040
Total number of batches                      ...      269
Average number of points per batch           ...       63
Average number of grid points per atom       ...     4260

  One-electron GIAO integrals (SHARK)     ... done
  Calculating G(B)[P]                     ... (RI-J: SHARK-ok) (COSX-ok) (add-J+K:ok) => dG/dB done
  DFT XC-terms                            ... done
  Extracting occupied and virtual blocks  ... 
  Operator  0  NO=   5 NV=  68 
  Operator  1  NO=   4 NV=  69 
  Transforming and RHS contribution       ... done
  Adding eps_i * S(B)_ai terms            ... done
  Projecting overlap derivatives          ... done
  Building G[dS/dB_ij] (COSX)             ... done
  Transforming to MO basis                ... done
  Summing G[dS/dB_ij] into RHS contribs.  ... done

  GIAO profiling information: 
    Total GIAO time               ...       0.8 sec
       GIAO 1-electron integrals  ...       0.0 sec (  0.4%)
       GIAO G(dS/dB) terms        ...       0.2 sec ( 18.3%)
       GIAO RI-J                  ...       0.1 sec ( 12.6%)
       GIAO COSX                  ...       0.1 sec ( 17.5%)
       GIAO XC-terms              ...       0.3 sec ( 35.5%)

  GIAO right hand side done


------------------------------------------------------------------------------
                           ORCA CP-SCF CALCULATION
------------------------------------------------------------------------------

Input orbitals are from        ... /home/rwth0701/scratch/cs681498/orcajob__30556406-odBw/12110.gbw
Input Perturbation             ... /home/rwth0701/scratch/cs681498/orcajob__30556406-odBw/12110.pin.tmp
Wavefunction output            ... /home/rwth0701/scratch/cs681498/orcajob__30556406-odBw/12110.pout.tmp
Perturbation mode              ... Imaginary perturbation
Solver                         ... POPLE
Max. number of iterations      ... 64
Convergence tolerance          ... 1.000e-03
Integral handling              ... Direct
DFT GridXC                     ... 1
COSX GridX                     ... 1
COSX IntAccX                   ... 3.067
COSX Algorithm                 ... Auto
Number of perturbations        ... 3
Number of operators            ... 2
Orbital ranges used for CP-SCF:
 Operator 0:  Orbitals   0...  4  to   5... 72
 Operator 1:  Orbitals   0...  3  to   4... 72
Variables per perturbation     ... 616
DFT calculation                         ... on
XC functional terms                     ... off
Hybrid DFT                              ... on
   Exchange mixing (SCF)                ...  0.200
   Exchange mixing (CP-SCF)             ...  0.200
   GGA exch. scaling(SCF)               ...  0.720
   GGA exch. scaling (CP-SCF)           ...  0.720
   GGA corr. scaling (SCF)              ...  0.810
   GGA corr. scaling (CP-SCF)           ...  0.810

CP-SCF GRID
-----------

General Integration Accuracy     IntAcc      ... 3.467
Radial Grid Type                 RadialGrid  ... OptM3 with GC (2021)
Angular Grid (max. ang.)         AngularGrid ... 1 (Lebedev-50)
Angular grid pruning method      GridPruning ... 4 (adaptive)
Weight generation scheme         WeightScheme... Becke
Basis function cutoff            BFCut       ... 1.0000e-10
Integration weight cutoff        WCut        ... 1.0000e-14
Angular grids for H and He will be reduced by one unit
Partially contracted basis set               ... off
Rotationally invariant grid construction     ... off

Total number of grid points                  ...     2335
Total number of batches                      ...       38
Average number of points per batch           ...       61
Average number of grid points per atom       ...      584

CP-SCF GRIDX
------------

General Integration Accuracy     IntAcc      ... 3.067
Radial Grid Type                 RadialGrid  ... OptM3 with GC (2021)
Angular Grid (max. ang.)         AngularGrid ... 1 (Lebedev-50)
Angular grid pruning method      GridPruning ... 4 (adaptive)
Weight generation scheme         WeightScheme... Becke
Basis function cutoff            BFCut       ... 1.0000e-10
Integration weight cutoff        WCut        ... 1.0000e-14
Angular grids for H and He will be reduced by one unit
Partially contracted basis set               ... on
Rotationally invariant grid construction     ... off

Total number of grid points                  ...     1070
Total number of batches                      ...       20
Average number of points per batch           ...       53
Average number of grid points per atom       ...      268

Memory available               ... 1014.6 MB
Memory needed per perturbation ...   0.4 MB
Perturbations treated per batch... 3
Number of batches              ... 1
     CP-SCF ITERATION   0:   7.4023e+00 (   0.1 sec   0/  3 done)
     CP-SCF ITERATION   1:   6.1353e-02 (   0.1 sec   0/  3 done)
     CP-SCF ITERATION   2:   3.3271e-03 (   0.1 sec   0/  3 done)
     CP-SCF ITERATION   3:   1.6637e-04 (   0.1 sec   3/  3 done)
                    *** THE CP-SCF HAS CONVERGED ***

Forming final perturbed densities           ... done
Transforming perturbed density to AO basis  ... done

Magnetic field perturbation calculated in  1.303 sec
GIAO: Diamagnetic terms      (analytic)     (SHARK) ... done
GIAO: 1el-Paramagnetic terms (analytic)     (SHARK) ... done

-------------------
ELECTRONIC G-MATRIX
-------------------

 The g-matrix: 
              2.0028937    0.0000350    0.0000038
              0.0000331    2.0028726    0.0000290
             -0.0000035    0.0000184    2.0022209

 gel          2.0023193    2.0023193    2.0023193
 gRMC        -0.0001282   -0.0001282   -0.0001282
 gDSO(tot)    0.0000344    0.0000707    0.0000707
 gPSO(tot)   -0.0000055    0.0005863    0.0006572
             ----------   ----------   ----------
 g(tot)       2.0022201    2.0028481    2.0029191 iso=  2.0026624
 Delta-g     -0.0000992    0.0005289    0.0005998 iso=  0.0003431
 Orientation: 
  X           0.0016666   -0.5981671   -0.8013696
  Y          -0.0363733    0.8008042   -0.5978207
  Z           0.9993369    0.0301448   -0.0204227

Notes:  (1) The g-matrix conforms to the "BgS" spin Hamiltonian convention. 
        (2) The principal values are square roots of the eigenvalues of g*gT.
        (3) Orientations are eigenvectors of g*gT written as column vectors.
        (4) Individual contributions are projections of the full matrices onto the eigenvectors of g*gT.
        (5) Tensor is right-handed.


-----------------------------------------
ELECTRIC AND MAGNETIC HYPERFINE STRUCTURE
-----------------------------------------

 -----------------------------------------------------------
 Nucleus   1H : A:ISTP=    1 I=  0.5 P=533.5514 MHz/au**3
                Q:ISTP=    2 I=  1.0 Q=  0.0029 barn     
 -----------------------------------------------------------
 Solving for nuclear perturbation:
Forming RHS of the CP-SCF equations         ... 
Calc. nucleus orbit integrals (SHARK)       ... done

------------------------------------------------------------------------------
                           ORCA CP-SCF CALCULATION
------------------------------------------------------------------------------

Input orbitals are from        ... /home/rwth0701/scratch/cs681498/orcajob__30556406-odBw/12110.gbw
Input Perturbation             ... /home/rwth0701/scratch/cs681498/orcajob__30556406-odBw/12110.pin.tmp
Wavefunction output            ... /home/rwth0701/scratch/cs681498/orcajob__30556406-odBw/12110.pout.tmp
Perturbation mode              ... Imaginary perturbation
Solver                         ... POPLE
Max. number of iterations      ... 64
Convergence tolerance          ... 1.000e-03
Integral handling              ... Direct
DFT GridXC                     ... 1
COSX GridX                     ... 1
COSX IntAccX                   ... 3.067
COSX Algorithm                 ... Auto
Number of perturbations        ... 3
Number of operators            ... 2
Orbital ranges used for CP-SCF:
 Operator 0:  Orbitals   0...  4  to   5... 72
 Operator 1:  Orbitals   0...  3  to   4... 72
Variables per perturbation     ... 616
DFT calculation                         ... on
XC functional terms                     ... off
Hybrid DFT                              ... on
   Exchange mixing (SCF)                ...  0.200
   Exchange mixing (CP-SCF)             ...  0.200
   GGA exch. scaling(SCF)               ...  0.720
   GGA exch. scaling (CP-SCF)           ...  0.720
   GGA corr. scaling (SCF)              ...  0.810
   GGA corr. scaling (CP-SCF)           ...  0.810

CP-SCF GRID
-----------

General Integration Accuracy     IntAcc      ... 3.467
Radial Grid Type                 RadialGrid  ... OptM3 with GC (2021)
Angular Grid (max. ang.)         AngularGrid ... 1 (Lebedev-50)
Angular grid pruning method      GridPruning ... 4 (adaptive)
Weight generation scheme         WeightScheme... Becke
Basis function cutoff            BFCut       ... 1.0000e-10
Integration weight cutoff        WCut        ... 1.0000e-14
Angular grids for H and He will be reduced by one unit
Partially contracted basis set               ... off
Rotationally invariant grid construction     ... off

Total number of grid points                  ...     2335
Total number of batches                      ...       38
Average number of points per batch           ...       61
Average number of grid points per atom       ...      584

CP-SCF GRIDX
------------

General Integration Accuracy     IntAcc      ... 3.067
Radial Grid Type                 RadialGrid  ... OptM3 with GC (2021)
Angular Grid (max. ang.)         AngularGrid ... 1 (Lebedev-50)
Angular grid pruning method      GridPruning ... 4 (adaptive)
Weight generation scheme         WeightScheme... Becke
Basis function cutoff            BFCut       ... 1.0000e-10
Integration weight cutoff        WCut        ... 1.0000e-14
Angular grids for H and He will be reduced by one unit
Partially contracted basis set               ... on
Rotationally invariant grid construction     ... off

Total number of grid points                  ...     1070
Total number of batches                      ...       20
Average number of points per batch           ...       53
Average number of grid points per atom       ...      268

Memory available               ... 968.0 MB
Memory needed per perturbation ...   0.4 MB
Perturbations treated per batch... 3
Number of batches              ... 1
     CP-SCF ITERATION   0:   6.6738e-02 (   0.1 sec   0/  3 done)
     CP-SCF ITERATION   1:   2.1896e-03 (   0.1 sec   1/  3 done)
     CP-SCF ITERATION   2:   1.5742e-04 (   0.1 sec   3/  3 done)
                    *** THE CP-SCF HAS CONVERGED ***

Forming final perturbed densities           ... done
Transforming perturbed density to AO basis  ... done

 Raw HFC matrix (all values in MHz): 
 -----------------------------------
              -103.6711              -1.5293              -0.0438
                -1.5313             -26.3199               1.3097
                -0.0439               1.3097             -64.1221

 A(FC)         -64.7179             -64.7179             -64.7179
 A(SD)          38.4633               0.5510             -39.0143
 A(ORB+DIA)      0.0102              -0.0006               0.0308    A(PC) =   0.0135
 A(ORB)          0.0054               0.0006               0.0294    A(PC) =   0.0118
 A(DIA)          0.0048              -0.0011               0.0014    A(PC) =   0.0017
             ----------           ----------           ----------
 A(Tot)        -26.2444             -64.1675            -103.7014    A(iso)=  -64.7044
 Orientation: 
  X          -0.0197556            0.0002301            0.9998048
  Y           0.9992070           -0.0345735            0.0197518
  Z           0.0345713            0.9994021            0.0004531

Notes:  (1) The A matrix conforms to the "SAI" spin Hamiltonian convention.
        (2) Tensor is right-handed.

 -----------------------------------------------------------
 Nucleus   2H : A:ISTP=    1 I=  0.5 P=533.5514 MHz/au**3
                Q:ISTP=    2 I=  1.0 Q=  0.0029 barn     
 -----------------------------------------------------------
 Solving for nuclear perturbation:
Forming RHS of the CP-SCF equations         ... 
Calc. nucleus orbit integrals (SHARK)       ... done

------------------------------------------------------------------------------
                           ORCA CP-SCF CALCULATION
------------------------------------------------------------------------------

Input orbitals are from        ... /home/rwth0701/scratch/cs681498/orcajob__30556406-odBw/12110.gbw
Input Perturbation             ... /home/rwth0701/scratch/cs681498/orcajob__30556406-odBw/12110.pin.tmp
Wavefunction output            ... /home/rwth0701/scratch/cs681498/orcajob__30556406-odBw/12110.pout.tmp
Perturbation mode              ... Imaginary perturbation
Solver                         ... POPLE
Max. number of iterations      ... 64
Convergence tolerance          ... 1.000e-03
Integral handling              ... Direct
DFT GridXC                     ... 1
COSX GridX                     ... 1
COSX IntAccX                   ... 3.067
COSX Algorithm                 ... Auto
Number of perturbations        ... 3
Number of operators            ... 2
Orbital ranges used for CP-SCF:
 Operator 0:  Orbitals   0...  4  to   5... 72
 Operator 1:  Orbitals   0...  3  to   4... 72
Variables per perturbation     ... 616
DFT calculation                         ... on
XC functional terms                     ... off
Hybrid DFT                              ... on
   Exchange mixing (SCF)                ...  0.200
   Exchange mixing (CP-SCF)             ...  0.200
   GGA exch. scaling(SCF)               ...  0.720
   GGA exch. scaling (CP-SCF)           ...  0.720
   GGA corr. scaling (SCF)              ...  0.810
   GGA corr. scaling (CP-SCF)           ...  0.810

CP-SCF GRID
-----------

General Integration Accuracy     IntAcc      ... 3.467
Radial Grid Type                 RadialGrid  ... OptM3 with GC (2021)
Angular Grid (max. ang.)         AngularGrid ... 1 (Lebedev-50)
Angular grid pruning method      GridPruning ... 4 (adaptive)
Weight generation scheme         WeightScheme... Becke
Basis function cutoff            BFCut       ... 1.0000e-10
Integration weight cutoff        WCut        ... 1.0000e-14
Angular grids for H and He will be reduced by one unit
Partially contracted basis set               ... off
Rotationally invariant grid construction     ... off

Total number of grid points                  ...     2335
Total number of batches                      ...       38
Average number of points per batch           ...       61
Average number of grid points per atom       ...      584

CP-SCF GRIDX
------------

General Integration Accuracy     IntAcc      ... 3.067
Radial Grid Type                 RadialGrid  ... OptM3 with GC (2021)
Angular Grid (max. ang.)         AngularGrid ... 1 (Lebedev-50)
Angular grid pruning method      GridPruning ... 4 (adaptive)
Weight generation scheme         WeightScheme... Becke
Basis function cutoff            BFCut       ... 1.0000e-10
Integration weight cutoff        WCut        ... 1.0000e-14
Angular grids for H and He will be reduced by one unit
Partially contracted basis set               ... on
Rotationally invariant grid construction     ... off

Total number of grid points                  ...     1070
Total number of batches                      ...       20
Average number of points per batch           ...       53
Average number of grid points per atom       ...      268

Memory available               ... 967.8 MB
Memory needed per perturbation ...   0.4 MB
Perturbations treated per batch... 3
Number of batches              ... 1
     CP-SCF ITERATION   0:   5.3835e-02 (   0.1 sec   0/  3 done)
     CP-SCF ITERATION   1:   2.0491e-03 (   0.1 sec   1/  3 done)
     CP-SCF ITERATION   2:   1.7855e-04 (   0.1 sec   3/  3 done)
                    *** THE CP-SCF HAS CONVERGED ***

Forming final perturbed densities           ... done
Transforming perturbed density to AO basis  ... done

 Raw HFC matrix (all values in MHz): 
 -----------------------------------
               -58.0682              31.2959               1.5321
                31.2963             -83.8255              -0.2178
                 1.5321              -0.2178             -75.6066

 A(FC)         -72.5125             -72.5125             -72.5125
 A(SD)          35.4308              -3.0913             -32.3395
 A(ORB+DIA)      0.0117              -0.0007               0.0262    A(PC) =   0.0124
 A(ORB)          0.0079               0.0003               0.0253    A(PC) =   0.0111
 A(DIA)          0.0038              -0.0010               0.0010    A(PC) =   0.0013
             ----------           ----------           ----------
 A(Tot)        -37.0701             -75.6045            -104.8258    A(iso)=  -72.5001
 Orientation: 
  X           0.8307107            0.0051382           -0.5566807
  Y           0.5559017            0.0460234            0.8299730
  Z           0.0298849           -0.9989271            0.0353758

Notes:  (1) The A matrix conforms to the "SAI" spin Hamiltonian convention.
        (2) Tensor is right-handed.

 -----------------------------------------------------------
 Nucleus   3H : A:ISTP=    1 I=  0.5 P=533.5514 MHz/au**3
                Q:ISTP=    2 I=  1.0 Q=  0.0029 barn     
 -----------------------------------------------------------
 Solving for nuclear perturbation:
Forming RHS of the CP-SCF equations         ... 
Calc. nucleus orbit integrals (SHARK)       ... done

------------------------------------------------------------------------------
                           ORCA CP-SCF CALCULATION
------------------------------------------------------------------------------

Input orbitals are from        ... /home/rwth0701/scratch/cs681498/orcajob__30556406-odBw/12110.gbw
Input Perturbation             ... /home/rwth0701/scratch/cs681498/orcajob__30556406-odBw/12110.pin.tmp
Wavefunction output            ... /home/rwth0701/scratch/cs681498/orcajob__30556406-odBw/12110.pout.tmp
Perturbation mode              ... Imaginary perturbation
Solver                         ... POPLE
Max. number of iterations      ... 64
Convergence tolerance          ... 1.000e-03
Integral handling              ... Direct
DFT GridXC                     ... 1
COSX GridX                     ... 1
COSX IntAccX                   ... 3.067
COSX Algorithm                 ... Auto
Number of perturbations        ... 3
Number of operators            ... 2
Orbital ranges used for CP-SCF:
 Operator 0:  Orbitals   0...  4  to   5... 72
 Operator 1:  Orbitals   0...  3  to   4... 72
Variables per perturbation     ... 616
DFT calculation                         ... on
XC functional terms                     ... off
Hybrid DFT                              ... on
   Exchange mixing (SCF)                ...  0.200
   Exchange mixing (CP-SCF)             ...  0.200
   GGA exch. scaling(SCF)               ...  0.720
   GGA exch. scaling (CP-SCF)           ...  0.720
   GGA corr. scaling (SCF)              ...  0.810
   GGA corr. scaling (CP-SCF)           ...  0.810

CP-SCF GRID
-----------

General Integration Accuracy     IntAcc      ... 3.467
Radial Grid Type                 RadialGrid  ... OptM3 with GC (2021)
Angular Grid (max. ang.)         AngularGrid ... 1 (Lebedev-50)
Angular grid pruning method      GridPruning ... 4 (adaptive)
Weight generation scheme         WeightScheme... Becke
Basis function cutoff            BFCut       ... 1.0000e-10
Integration weight cutoff        WCut        ... 1.0000e-14
Angular grids for H and He will be reduced by one unit
Partially contracted basis set               ... off
Rotationally invariant grid construction     ... off

Total number of grid points                  ...     2335
Total number of batches                      ...       38
Average number of points per batch           ...       61
Average number of grid points per atom       ...      584

CP-SCF GRIDX
------------

General Integration Accuracy     IntAcc      ... 3.067
Radial Grid Type                 RadialGrid  ... OptM3 with GC (2021)
Angular Grid (max. ang.)         AngularGrid ... 1 (Lebedev-50)
Angular grid pruning method      GridPruning ... 4 (adaptive)
Weight generation scheme         WeightScheme... Becke
Basis function cutoff            BFCut       ... 1.0000e-10
Integration weight cutoff        WCut        ... 1.0000e-14
Angular grids for H and He will be reduced by one unit
Partially contracted basis set               ... on
Rotationally invariant grid construction     ... off

Total number of grid points                  ...     1070
Total number of batches                      ...       20
Average number of points per batch           ...       53
Average number of grid points per atom       ...      268

Memory available               ... 967.7 MB
Memory needed per perturbation ...   0.4 MB
Perturbations treated per batch... 3
Number of batches              ... 1
     CP-SCF ITERATION   0:   6.9526e-02 (   0.1 sec   0/  3 done)
     CP-SCF ITERATION   1:   2.4777e-03 (   0.1 sec   1/  3 done)
     CP-SCF ITERATION   2:   2.1219e-04 (   0.1 sec   3/  3 done)
                    *** THE CP-SCF HAS CONVERGED ***

Forming final perturbed densities           ... done
Transforming perturbed density to AO basis  ... done

 Raw HFC matrix (all values in MHz): 
 -----------------------------------
               -36.4042             -28.3272              -1.4811
               -28.3251             -93.3758              -1.2018
                -1.4811              -1.2018             -62.1557

 A(FC)         -63.9921             -63.9921             -63.9921
 A(SD)          39.2873               1.8802             -41.1674
 A(ORB+DIA)      0.0093              -0.0005               0.0320    A(PC) =   0.0136
 A(ORB)          0.0042               0.0006               0.0305    A(PC) =   0.0118
 A(DIA)          0.0051              -0.0012               0.0015    A(PC) =   0.0018
             ----------           ----------           ----------
 A(Tot)        -24.6956             -62.1125            -105.1276    A(iso)=  -63.9786
 Orientation: 
  X           0.9243325           -0.0076262            0.3815118
  Y          -0.3808116            0.0453102            0.9235418
  Z          -0.0243295           -0.9989439            0.0389776

Notes:  (1) The A matrix conforms to the "SAI" spin Hamiltonian convention.
        (2) Tensor is right-handed.

 -----------------------------------------------------------
 Nucleus   0C : A:ISTP=   13 I=  0.5 P=134.1903 MHz/au**3
                Q:ISTP=   13 I=  0.5 Q=  0.0000 barn     
 -----------------------------------------------------------
 Solving for nuclear perturbation:
Forming RHS of the CP-SCF equations         ... 
Calc. nucleus orbit integrals (SHARK)       ... done

------------------------------------------------------------------------------
                           ORCA CP-SCF CALCULATION
------------------------------------------------------------------------------

Input orbitals are from        ... /home/rwth0701/scratch/cs681498/orcajob__30556406-odBw/12110.gbw
Input Perturbation             ... /home/rwth0701/scratch/cs681498/orcajob__30556406-odBw/12110.pin.tmp
Wavefunction output            ... /home/rwth0701/scratch/cs681498/orcajob__30556406-odBw/12110.pout.tmp
Perturbation mode              ... Imaginary perturbation
Solver                         ... POPLE
Max. number of iterations      ... 64
Convergence tolerance          ... 1.000e-03
Integral handling              ... Direct
DFT GridXC                     ... 1
COSX GridX                     ... 1
COSX IntAccX                   ... 3.067
COSX Algorithm                 ... Auto
Number of perturbations        ... 3
Number of operators            ... 2
Orbital ranges used for CP-SCF:
 Operator 0:  Orbitals   0...  4  to   5... 72
 Operator 1:  Orbitals   0...  3  to   4... 72
Variables per perturbation     ... 616
DFT calculation                         ... on
XC functional terms                     ... off
Hybrid DFT                              ... on
   Exchange mixing (SCF)                ...  0.200
   Exchange mixing (CP-SCF)             ...  0.200
   GGA exch. scaling(SCF)               ...  0.720
   GGA exch. scaling (CP-SCF)           ...  0.720
   GGA corr. scaling (SCF)              ...  0.810
   GGA corr. scaling (CP-SCF)           ...  0.810

CP-SCF GRID
-----------

General Integration Accuracy     IntAcc      ... 3.467
Radial Grid Type                 RadialGrid  ... OptM3 with GC (2021)
Angular Grid (max. ang.)         AngularGrid ... 1 (Lebedev-50)
Angular grid pruning method      GridPruning ... 4 (adaptive)
Weight generation scheme         WeightScheme... Becke
Basis function cutoff            BFCut       ... 1.0000e-10
Integration weight cutoff        WCut        ... 1.0000e-14
Angular grids for H and He will be reduced by one unit
Partially contracted basis set               ... off
Rotationally invariant grid construction     ... off

Total number of grid points                  ...     2335
Total number of batches                      ...       38
Average number of points per batch           ...       61
Average number of grid points per atom       ...      584

CP-SCF GRIDX
------------

General Integration Accuracy     IntAcc      ... 3.067
Radial Grid Type                 RadialGrid  ... OptM3 with GC (2021)
Angular Grid (max. ang.)         AngularGrid ... 1 (Lebedev-50)
Angular grid pruning method      GridPruning ... 4 (adaptive)
Weight generation scheme         WeightScheme... Becke
Basis function cutoff            BFCut       ... 1.0000e-10
Integration weight cutoff        WCut        ... 1.0000e-14
Angular grids for H and He will be reduced by one unit
Partially contracted basis set               ... on
Rotationally invariant grid construction     ... off

Total number of grid points                  ...     1070
Total number of batches                      ...       20
Average number of points per batch           ...       53
Average number of grid points per atom       ...      268

Memory available               ... 967.6 MB
Memory needed per perturbation ...   0.4 MB
Perturbations treated per batch... 3
Number of batches              ... 1
     CP-SCF ITERATION   0:   1.1430e+00 (   0.1 sec   0/  3 done)
     CP-SCF ITERATION   1:   4.0364e-02 (   0.1 sec   0/  3 done)
     CP-SCF ITERATION   2:   3.0187e-03 (   0.1 sec   1/  3 done)
     CP-SCF ITERATION   3:   1.4187e-04 (   0.1 sec   3/  3 done)
                    *** THE CP-SCF HAS CONVERGED ***

Forming final perturbed densities           ... done
Transforming perturbed density to AO basis  ... done

 Raw HFC matrix (all values in MHz): 
 -----------------------------------
                11.5364               0.3146               0.1149
                 0.3146              11.9401             -10.2404
                 0.1149             -10.2403             253.6434

 A(FC)          92.4970              92.4970              92.4970
 A(SD)         -81.1037             -80.4894             161.5931
 A(ORB+DIA)     -0.1911              -0.1664              -0.0136    A(PC) =  -0.1237
 A(ORB)         -0.1915              -0.1667              -0.0135    A(PC) =  -0.1239
 A(DIA)          0.0004               0.0004              -0.0001    A(PC) =   0.0002
             ----------           ----------           ----------
 A(Tot)         11.2022              11.8412             254.0765    A(iso)=   92.3733
 Orientation: 
  X           0.6906315           -0.7232067           -0.0004185
  Y          -0.7225487           -0.6900276            0.0422534
  Z          -0.0308467           -0.0288791           -0.9991068

Notes:  (1) The A matrix conforms to the "SAI" spin Hamiltonian convention.
        (2) Tensor is right-handed.


--------------------------------------------------------------------------------
----------------------------------------------------------------------------
                           ORCA EULER ANGLE PROGRAM
----------------------------------------------------------------------------

Only g-tensor available        -->  using g-tensor as reference tensor

Reference tensor               ...  g

g-tensor ordering              ...  |g_min> --> |gx>
                                    |g_mid> --> |gy>
                                    |g_max> --> |gz>

A- and EFG-tensor ordering     ...  the axes |Ax>, |Qx>, |Ay>, etc. are assigned
                                    such that the Euler rotation is minimal. You
                                    can find the respective eigenvalues as Ax,
                                    EFGx, Ay, etc. in the tables below.
                                    The relation of |Ax>, |Ay>,  etc. to Amin, Amid, etc.
                                    (as printed in the ORCA EPR/NMR CALCULATION Output)
                                    is obtained in the detailed printout.

Euler rotation around          ...  z - y - z
   First rotation              -->  by alpha around z
   Second rotation             -->  by beta around y'
   Third rotation              -->  by gamma around z''
   Positive / Negative angle   -->  clockwise / counterclockwise rotation

Plot EFG-tensors                    (-)
Plot HFC-tensors                    (-)
Detailed Printout                   (-)

-------------------------------------------------------------------------
          Euler rotation of hyperfine tensor to g-tensor
-------------------------------------------------------------------------

-------------------------------------------------------------------
 Atom  |   Alpha    Beta    Gamma   |   Ax       Ay       Az 
       |          [degrees]         |           [MHz]         
-------------------------------------------------------------------
  1H      -90.0     35.6     89.9     -64.17   -26.24  -103.70
  2H      -77.5      3.0     77.8     -75.60  -104.83   -37.07
  3H       89.9     30.8    -89.3     -62.11   -24.70  -105.13
  0C       87.9      6.9    -87.6     254.08    11.20    11.84
-------------------------------------------------------------------


Maximum memory used throughout the entire EPRNMR-calculation: 67.6 MB

Timings for individual modules:

Sum of individual times         ...       17.582 sec (=   0.293 min)
GTO integral calculation        ...        2.401 sec (=   0.040 min)  13.7 %
Spin-Orbit-Coupling Matrices    ...        1.955 sec (=   0.033 min)  11.1 %
SCF iterations                  ...        7.189 sec (=   0.120 min)  40.9 %
EPR/NMR calculation             ...        6.036 sec (=   0.101 min)  34.3 %
                             ****ORCA TERMINATED NORMALLY****
TOTAL RUN TIME: 0 days 0 hours 0 minutes 19 seconds 660 msec
