Job execution start: Mon Oct 24 19:42:44 CEST 2022
Shared library path: /home/cs681498/orca:/opt/MPI/openmpi-4.1.1/linux/gcc_4.8.5/lib:/opt/MPI/openmpi-4.1.1/linux/gcc_4.8.5/lib/lib32
Slurm Job ID is: 30556408
Slurm Job name is: 12183
nrm082

                                 *****************
                                 * O   R   C   A *
                                 *****************

                                            #,                                       
                                            ###                                      
                                            ####                                     
                                            #####                                    
                                            ######                                   
                                           ########,                                 
                                     ,,################,,,,,                         
                               ,,#################################,,                 
                          ,,##########################################,,             
                       ,#########################################, ''#####,          
                    ,#############################################,,   '####,        
                  ,##################################################,,,,####,       
                ,###########''''           ''''###############################       
              ,#####''   ,,,,##########,,,,          '''####'''          '####       
            ,##' ,,,,###########################,,,                        '##       
           ' ,,###''''                  '''############,,,                           
         ,,##''                                '''############,,,,        ,,,,,,###''
      ,#''                                            '''#######################'''  
     '                                                          ''''####''''         
             ,#######,   #######,   ,#######,      ##                                
            ,#'     '#,  ##    ##  ,#'     '#,    #''#        ######   ,####,        
            ##       ##  ##   ,#'  ##            #'  '#       #        #'  '#        
            ##       ##  #######   ##           ,######,      #####,   #    #        
            '#,     ,#'  ##    ##  '#,     ,#' ,#      #,         ##   #,  ,#        
             '#######'   ##     ##  '#######'  #'      '#     #####' # '####'        



                  #######################################################
                  #                        -***-                        #
                  #          Department of theory and spectroscopy      #
                  #    Directorship and core code : Frank Neese         #
                  #        Max Planck Institute fuer Kohlenforschung    #
                  #                Kaiser Wilhelm Platz 1               #
                  #                 D-45470 Muelheim/Ruhr               #
                  #                      Germany                        #
                  #                                                     #
                  #                  All rights reserved                #
                  #                        -***-                        #
                  #######################################################


                         Program Version 5.0.3 -  RELEASE  -


 With contributions from (in alphabetic order):
   Daniel Aravena         : Magnetic Suceptibility
   Michael Atanasov       : Ab Initio Ligand Field Theory (pilot matlab implementation)
   Alexander A. Auer      : GIAO ZORA, VPT2 properties, NMR spectrum
   Ute Becker             : Parallelization
   Giovanni Bistoni       : ED, misc. LED, open-shell LED, HFLD
   Martin Brehm           : Molecular dynamics
   Dmytro Bykov           : SCF Hessian
   Vijay G. Chilkuri      : MRCI spin determinant printing, contributions to CSF-ICE
   Dipayan Datta          : RHF DLPNO-CCSD density
   Achintya Kumar Dutta   : EOM-CC, STEOM-CC
   Dmitry Ganyushin       : Spin-Orbit,Spin-Spin,Magnetic field MRCI
   Miquel Garcia          : C-PCM and meta-GGA Hessian, CC/C-PCM, Gaussian charge scheme
   Yang Guo               : DLPNO-NEVPT2, F12-NEVPT2, CIM, IAO-localization
   Andreas Hansen         : Spin unrestricted coupled pair/coupled cluster methods
   Benjamin Helmich-Paris : MC-RPA, TRAH-SCF, COSX integrals
   Lee Huntington         : MR-EOM, pCC
   Robert Izsak           : Overlap fitted RIJCOSX, COSX-SCS-MP3, EOM
   Marcus Kettner         : VPT2
   Christian Kollmar      : KDIIS, OOCD, Brueckner-CCSD(T), CCSD density, CASPT2, CASPT2-K
   Simone Kossmann        : Meta GGA functionals, TD-DFT gradient, OOMP2, MP2 Hessian
   Martin Krupicka        : Initial AUTO-CI
   Lucas Lang             : DCDCAS
   Marvin Lechner         : AUTO-CI (C++ implementation), FIC-MRCC
   Dagmar Lenk            : GEPOL surface, SMD
   Dimitrios Liakos       : Extrapolation schemes; Compound Job, initial MDCI parallelization
   Dimitrios Manganas     : Further ROCIS development; embedding schemes
   Dimitrios Pantazis     : SARC Basis sets
   Anastasios Papadopoulos: AUTO-CI, single reference methods and gradients
   Taras Petrenko         : DFT Hessian,TD-DFT gradient, ASA, ECA, R-Raman, ABS, FL, XAS/XES, NRVS
   Peter Pinski           : DLPNO-MP2, DLPNO-MP2 Gradient
   Christoph Reimann      : Effective Core Potentials
   Marius Retegan         : Local ZFS, SOC
   Christoph Riplinger    : Optimizer, TS searches, QM/MM, DLPNO-CCSD(T), (RO)-DLPNO pert. Triples
   Tobias Risthaus        : Range-separated hybrids, TD-DFT gradient, RPA, STAB
   Michael Roemelt        : Original ROCIS implementation
   Masaaki Saitow         : Open-shell DLPNO-CCSD energy and density
   Barbara Sandhoefer     : DKH picture change effects
   Avijit Sen             : IP-ROCIS
   Kantharuban Sivalingam : CASSCF convergence, NEVPT2, FIC-MRCI
   Bernardo de Souza      : ESD, SOC TD-DFT
   Georgi Stoychev        : AutoAux, RI-MP2 NMR, DLPNO-MP2 response
   Willem Van den Heuvel  : Paramagnetic NMR
   Boris Wezisla          : Elementary symmetry handling
   Frank Wennmohs         : Technical directorship


 We gratefully acknowledge several colleagues who have allowed us to
 interface, adapt or use parts of their codes:
   Stefan Grimme, W. Hujo, H. Kruse, P. Pracht,  : VdW corrections, initial TS optimization,
                  C. Bannwarth, S. Ehlert          DFT functionals, gCP, sTDA/sTD-DF
   Ed Valeev, F. Pavosevic, A. Kumar             : LibInt (2-el integral package), F12 methods
   Garnet Chan, S. Sharma, J. Yang, R. Olivares  : DMRG
   Ulf Ekstrom                                   : XCFun DFT Library
   Mihaly Kallay                                 : mrcc  (arbitrary order and MRCC methods)
   Jiri Pittner, Ondrej Demel                    : Mk-CCSD
   Frank Weinhold                                : gennbo (NPA and NBO analysis)
   Christopher J. Cramer and Donald G. Truhlar   : smd solvation model
   Lars Goerigk                                  : TD-DFT with DH, B97 family of functionals
   V. Asgeirsson, H. Jonsson                     : NEB implementation
   FAccTs GmbH                                   : IRC, NEB, NEB-TS, DLPNO-Multilevel, CI-OPT
                                                   MM, QMMM, 2- and 3-layer-ONIOM, Crystal-QMMM,
                                                   LR-CPCM, SF, NACMEs, symmetry and pop. for TD-DFT,
                                                   nearIR, NL-DFT gradient (VV10), updates on ESD,
                                                   ML-optimized integration grids
   S Lehtola, MJT Oliveira, MAL Marques          : LibXC Library
   Liviu Ungur et al                             : ANISO software


 Your calculation uses the libint2 library for the computation of 2-el integrals
 For citations please refer to: http://libint.valeyev.net

 Your ORCA version has been built with support for libXC version: 5.1.0
 For citations please refer to: https://tddft.org/programs/libxc/

 This ORCA versions uses:
   CBLAS   interface :  Fast vector & matrix operations
   LAPACKE interface :  Fast linear algebra routines
   SCALAPACK package :  Parallel linear algebra routines
   Shared memory     :  Shared parallel matrices
   BLAS/LAPACK       :  OpenBLAS 0.3.15  USE64BITINT DYNAMIC_ARCH NO_AFFINITY SkylakeX SINGLE_THREADED
        Core in use  :  SkylakeX
   Copyright (c) 2011-2014, The OpenBLAS Project


================================================================================

----- Orbital basis set information -----
Your calculation utilizes the basis: EPR-III
   V. Barone, in Recent Advances in Density Functional Methods, Part 1 (ed. D. P. Chong), World Scientific, Singapore, 1995, p. 287.
   N. Rega, M. Cossi and V. Barone, J. Chem. Phys. 105, 11060 (1996).

----- AuxJ basis set information -----
Your calculation utilizes the AutoAux generation procedure.
  G. L. Stoychev, A. A. Auer, F. Neese, J. Chem. Theory Comput. 13, 554 (2017)

----- AuxC basis set information -----
Your calculation utilizes the AutoAux generation procedure.
  G. L. Stoychev, A. A. Auer, F. Neese, J. Chem. Theory Comput. 13, 554 (2017)

----- AuxJK basis set information -----
Your calculation utilizes the AutoAux generation procedure.
  G. L. Stoychev, A. A. Auer, F. Neese, J. Chem. Theory Comput. 13, 554 (2017)

================================================================================
                                        WARNINGS
                       Please study these warnings very carefully!
================================================================================


WARNING: your system is open-shell and RHF/RKS was chosen
  ===> : WILL SWITCH to UHF/UKS


INFO   : the flag for use of the SHARK integral package has been found!

================================================================================
                                       INPUT FILE
================================================================================
NAME = /home/rwth0701/scratch/cs681498/orcajob__30556408-Mf7a/12183.inp
|  1> !B3LYP EPR-III Autoaux
|  2> !PAL4
|  3> 
|  4> * xyz 0 2
|  5>  C    -52.0934391941    -73.5273669566    -23.6871655757
|  6>  H    -52.7222656312    -72.6273260245    -23.6098187939
|  7>  H    -52.5696527833    -74.4675291622    -23.7675211651
|  8>  H    -50.9490584655    -73.5396674763    -23.6353561279
|  9> *
| 10> 
| 11> %EPRNMR
| 12>         GTENSOR   TRUE
| 13>         NUCLEI    = ALL H {AISO, ADIP, AORB}
| 14>         NUCLEI    = ALL C {AISO, ADIP, AORB}
| 15> END
| 16> 
| 17> 
| 18>                          ****END OF INPUT****
================================================================================

                       ****************************
                       * Single Point Calculation *
                       ****************************

---------------------------------
CARTESIAN COORDINATES (ANGSTROEM)
---------------------------------
  C    -52.093439  -73.527367  -23.687166
  H    -52.722266  -72.627326  -23.609819
  H    -52.569653  -74.467529  -23.767521
  H    -50.949058  -73.539667  -23.635356

----------------------------
CARTESIAN COORDINATES (A.U.)
----------------------------
  NO LB      ZA    FRAG     MASS         X           Y           Z
   0 C     6.0000    0    12.011  -98.442333  -138.946587  -44.762256
   1 H     1.0000    0     1.008  -99.630643  -137.245756  -44.616092
   2 H     1.0000    0     1.008  -99.342247  -140.723236  -44.914106
   3 H     1.0000    0     1.008  -96.279767  -138.969832  -44.664350

--------------------------------
INTERNAL COORDINATES (ANGSTROEM)
--------------------------------
 C      0   0   0     0.000000000000     0.00000000     0.00000000
 H      1   0   0     1.100672018408     0.00000000     0.00000000
 H      1   2   0     1.056949088710   118.37898147     0.00000000
 H      1   2   3     1.145618947843   125.19042454   183.25206405

---------------------------
INTERNAL COORDINATES (A.U.)
---------------------------
 C      0   0   0     0.000000000000     0.00000000     0.00000000
 H      1   0   0     2.079968678061     0.00000000     0.00000000
 H      1   2   0     1.997344315160   118.37898147     0.00000000
 H      1   2   3     2.164906065255   125.19042454   183.25206405

---------------------
BASIS SET INFORMATION
---------------------
There are 2 groups of distinct atoms

 Group   1 Type C   : 12s8p2d1f contracted to 8s5p2d1f pattern {51111111/41111/11/1}
 Group   2 Type H   : 7s2p contracted to 5s2p pattern {31111/11}

Atom   0C    basis set group =>   1
Atom   1H    basis set group =>   2
Atom   2H    basis set group =>   2
Atom   3H    basis set group =>   2
---------------------------------
AUXILIARY/J BASIS SET INFORMATION
---------------------------------
There are 2 groups of distinct atoms

 Group   1 Type C   : 20s17p16d8f3g contracted to 20s17p16d8f3g pattern {11111111111111111111/11111111111111111/1111111111111111/11111111/111}
 Group   2 Type H   : 17s7p3d contracted to 17s7p3d pattern {11111111111111111/1111111/111}

Atom   0C    basis set group =>   1
Atom   1H    basis set group =>   2
Atom   2H    basis set group =>   2
Atom   3H    basis set group =>   2
---------------------------------
AUXILIARY/C BASIS SET INFORMATION
---------------------------------
There are 2 groups of distinct atoms

 Group   1 Type C   : 20s17p16d8f3g contracted to 20s17p16d8f3g pattern {11111111111111111111/11111111111111111/1111111111111111/11111111/111}
 Group   2 Type H   : 17s7p3d contracted to 17s7p3d pattern {11111111111111111/1111111/111}

Atom   0C    basis set group =>   1
Atom   1H    basis set group =>   2
Atom   2H    basis set group =>   2
Atom   3H    basis set group =>   2
----------------------------------
AUXILIARY/JK BASIS SET INFORMATION
----------------------------------
There are 2 groups of distinct atoms

 Group   1 Type C   : 20s17p16d8f3g contracted to 20s17p16d8f3g pattern {11111111111111111111/11111111111111111/1111111111111111/11111111/111}
 Group   2 Type H   : 17s7p3d contracted to 17s7p3d pattern {11111111111111111/1111111/111}

Atom   0C    basis set group =>   1
Atom   1H    basis set group =>   2
Atom   2H    basis set group =>   2
Atom   3H    basis set group =>   2


           ************************************************************
           *        Program running with 4 parallel MPI-processes     *
           *              working on a common directory               *
           ************************************************************
------------------------------------------------------------------------------
                           ORCA GTO INTEGRAL CALCULATION
                           -- RI-GTO INTEGRALS CHOSEN --
------------------------------------------------------------------------------
------------------------------------------------------------------------------
                   ___                                                        
                  /   \      - P O W E R E D   B Y -                         
                 /     \                                                     
                 |  |  |   _    _      __       _____    __    __             
                 |  |  |  | |  | |    /  \     |  _  \  |  |  /  |          
                  \  \/   | |  | |   /    \    | | | |  |  | /  /          
                 / \  \   | |__| |  /  /\  \   | |_| |  |  |/  /          
                |  |  |   |  __  | /  /__\  \  |    /   |      \           
                |  |  |   | |  | | |   __   |  |    \   |  |\   \          
                \     /   | |  | | |  |  |  |  | |\  \  |  | \   \       
                 \___/    |_|  |_| |__|  |__|  |_| \__\ |__|  \__/        
                                                                              
                      - O R C A' S   B I G   F R I E N D -                    
                                      &                                       
                       - I N T E G R A L  F E E D E R -                       
                                                                              
 v1 FN, 2020, v2 2021                                                         
------------------------------------------------------------------------------


Reading SHARK input file /home/rwth0701/scratch/cs681498/orcajob__30556408-Mf7a/12183.SHARKINP.tmp ... ok
----------------------
SHARK INTEGRAL PACKAGE
----------------------

Number of atoms                             ...      4
Number of basis functions                   ...     73
Number of shells                            ...     37
Maximum angular momentum                    ...      3
Integral batch strategy                     ... SHARK/LIBINT Hybrid
RI-J (if used) integral strategy            ... SPLIT-RIJ (Revised 2003 algorithm where possible)
Printlevel                                  ...      1
Contraction scheme used                     ... SEGMENTED contraction
Coulomb Range Separation                    ... NOT USED
Exchange Range Separation                   ... NOT USED
Finite Nucleus Model                        ... NOT USED
Auxiliary Coulomb fitting basis             ... AVAILABLE
   # of basis functions in Aux-J            ...    393
   # of shells in Aux-J                     ...    145
   Maximum angular momentum in Aux-J        ...      4
Auxiliary J/K fitting basis                 ... AVAILABLE
   # of basis functions in Aux-JK           ...    393
   # of shells in Aux-JK                    ...    145
   Maximum angular momentum in Aux-JK       ...      4
Auxiliary Correlation fitting basis         ... AVAILABLE
   # of basis functions in Aux-C            ...    393
   # of shells in Aux-C                     ...    145
   Maximum angular momentum in Aux-C        ...      4
Auxiliary 'external' fitting basis          ... NOT available
Integral threshold                          ...     1.000000e-10
Primitive cut-off                           ...     1.000000e-11
Primitive pair pre-selection threshold      ...     1.000000e-11

Calculating pre-screening integrals         ... done (  0.0 sec) Dimension = 37
Organizing shell pair data                  ... done (  0.0 sec)
Shell pair information
Total number of shell pairs                 ...       703
Shell pairs after pre-screening             ...       688
Total number of primitive shell pairs       ...      1300
Primitive shell pairs kept                  ...      1183
          la=0 lb=0:    261 shell pairs
          la=1 lb=0:    253 shell pairs
          la=1 lb=1:     66 shell pairs
          la=2 lb=0:     46 shell pairs
          la=2 lb=1:     22 shell pairs
          la=2 lb=2:      3 shell pairs
          la=3 lb=0:     23 shell pairs
          la=3 lb=1:     11 shell pairs
          la=3 lb=2:      2 shell pairs
          la=3 lb=3:      1 shell pairs

Calculating one electron integrals          ... done (  0.0 sec)
Calculating RI/J V-Matrix + Cholesky decomp.... done (  0.1 sec)
Calculating RI/JK V-Matrix + Cholesky decomp... done (  0.1 sec)
Calculating RI/C V-Matrix + Cholesky decomp.... done (  0.1 sec)
Calculating Nuclear repulsion               ... done (  0.0 sec) ENN=      9.493681434129 Eh

SHARK setup successfully completed in   0.5 seconds

Maximum memory used throughout the entire GTOINT-calculation: 13.7 MB


           ************************************************************
           *        Program running with 4 parallel MPI-processes     *
           *              working on a common directory               *
           ************************************************************
-------------------------------------------------------------------------------
                                 ORCA SCF
-------------------------------------------------------------------------------

------------
SCF SETTINGS
------------
Hamiltonian:
 Density Functional     Method          .... DFT(GTOs)
 Exchange Functional    Exchange        .... B88
   X-Alpha parameter    XAlpha          ....  0.666667
   Becke's b parameter  XBeta           ....  0.004200
 Correlation Functional Correlation     .... LYP
 LDA part of GGA corr.  LDAOpt          .... VWN-5
 Gradients option       PostSCFGGA      .... off
 Hybrid DFT is turned on
   Fraction HF Exchange ScalHFX         ....  0.200000
   Scaling of DF-GGA-X  ScalDFX         ....  0.720000
   Scaling of DF-GGA-C  ScalDFC         ....  0.810000
   Scaling of DF-LDA-C  ScalLDAC        ....  1.000000
   Perturbative correction              ....  0.000000
   Density functional embedding theory  .... OFF
   NL short-range parameter             ....  4.800000
 RI-approximation to the Coulomb term is turned on
   Number of AuxJ basis functions       .... 393
   RIJ-COSX (HFX calculated with COS-X)).... on


General Settings:
 Integral files         IntName         .... /home/rwth0701/scratch/cs681498/orcajob__30556408-Mf7a/12183
 Hartree-Fock type      HFTyp           .... UHF
 Total Charge           Charge          ....    0
 Multiplicity           Mult            ....    2
 Number of Electrons    NEL             ....    9
 Basis Dimension        Dim             ....   73
 Nuclear Repulsion      ENuc            ....      9.4936814341 Eh

Convergence Acceleration:
 DIIS                   CNVDIIS         .... on
   Start iteration      DIISMaxIt       ....    12
   Startup error        DIISStart       ....  0.200000
   # of expansion vecs  DIISMaxEq       ....     5
   Bias factor          DIISBfac        ....   1.050
   Max. coefficient     DIISMaxC        ....  10.000
 Trust-Rad. Augm. Hess. CNVTRAH         .... auto
   Auto Start mean grad. ratio tolernc. ....  1.125000
   Auto Start start iteration           ....    20
   Auto Start num. interpolation iter.  ....    10
   Max. Number of Micro iterations      ....    16
   Max. Number of Macro iterations      .... Maxiter - #DIIS iter
   Number of Davidson start vectors     ....     2
   Converg. threshold I  (grad. norm)   ....   5.000e-05
   Converg. threshold II (energy diff.) ....   1.000e-06
   Grad. Scal. Fac. for Micro threshold ....   0.100
   Minimum threshold for Micro iter.    ....   0.010
   NR start threshold (gradient norm)   ....   0.001
   Initial trust radius                 ....   0.400
   Minimum AH scaling param. (alpha)    ....   1.000
   Maximum AH scaling param. (alpha)    .... 1000.000
   Orbital update algorithm             .... Taylor
   White noise on init. David. guess    .... on
   Maximum white noise                  ....   0.010
   Quad. conv. algorithm                .... NR
 SOSCF                  CNVSOSCF        .... off
 Level Shifting         CNVShift        .... on
   Level shift para.    LevelShift      ....    0.2500
   Turn off err/grad.   ShiftErr        ....    0.0010
 Zerner damping         CNVZerner       .... off
 Static damping         CNVDamp         .... on
   Fraction old density DampFac         ....    0.7000
   Max. Damping (<1)    DampMax         ....    0.9800
   Min. Damping (>=0)   DampMin         ....    0.0000
   Turn off err/grad.   DampErr         ....    0.1000
 Fernandez-Rico         CNVRico         .... off

SCF Procedure:
 Maximum # iterations   MaxIter         ....   125
 SCF integral mode      SCFMode         .... Direct
   Integral package                     .... SHARK and LIBINT hybrid scheme
 Reset frequency        DirectResetFreq ....    20
 Integral Threshold     Thresh          ....  1.000e-10 Eh
 Primitive CutOff       TCut            ....  1.000e-11 Eh

Convergence Tolerance:
 Convergence Check Mode ConvCheckMode   .... Total+1el-Energy
 Convergence forced     ConvForced      .... 0
 Energy Change          TolE            ....  1.000e-06 Eh
 1-El. energy change                    ....  1.000e-03 Eh
 DIIS Error             TolErr          ....  1.000e-06


Diagonalization of the overlap matrix:
Smallest eigenvalue                        ... 1.682e-03
Time for diagonalization                   ...    0.001 sec
Threshold for overlap eigenvalues          ... 1.000e-08
Number of eigenvalues below threshold      ... 0
Time for construction of square roots      ...    0.009 sec
Total time needed                          ...    0.010 sec

Time for model grid setup =    0.056 sec

------------------------------
INITIAL GUESS: MODEL POTENTIAL
------------------------------
Loading Hartree-Fock densities                     ... done
Calculating cut-offs                               ... done
Initializing the effective Hamiltonian             ... done
Setting up the integral package (SHARK)            ... done
Starting the Coulomb interaction                   ... done (   0.0 sec)
Reading the grid                                   ... done
Mapping shells                                     ... done
Starting the XC term evaluation                    ... done (   0.0 sec)
  promolecular density results
     # of electrons  =      8.998416996
     EX              =     -5.961364750
     EC              =     -0.259615393
     EX+EC           =     -6.220980143
Transforming the Hamiltonian                       ... done (   0.0 sec)
Diagonalizing the Hamiltonian                      ... done (   0.0 sec)
Back transforming the eigenvectors                 ... done (   0.0 sec)
Now organizing SCF variables                       ... done
                      ------------------
                      INITIAL GUESS DONE (   0.1 sec)
                      ------------------
-------------------
DFT GRID GENERATION
-------------------

General Integration Accuracy     IntAcc      ... 4.388
Radial Grid Type                 RadialGrid  ... OptM3 with GC (2021)
Angular Grid (max. ang.)         AngularGrid ... 4 (Lebedev-302)
Angular grid pruning method      GridPruning ... 4 (adaptive)
Weight generation scheme         WeightScheme... Becke
Basis function cutoff            BFCut       ... 1.0000e-10
Integration weight cutoff        WCut        ... 1.0000e-14
Angular grids for H and He will be reduced by one unit
Partially contracted basis set               ... off
Rotationally invariant grid construction     ... off

Total number of grid points                  ...    17031
Total number of batches                      ...      268
Average number of points per batch           ...       63
Average number of grid points per atom       ...     4258
Time for grid setup =    0.123 sec

--------------------
COSX GRID GENERATION
--------------------

GRIDX 1
-------
General Integration Accuracy     IntAcc      ... 3.816
Radial Grid Type                 RadialGrid  ... OptM3 with GC (2021)
Angular Grid (max. ang.)         AngularGrid ... 1 (Lebedev-50)
Angular grid pruning method      GridPruning ... 4 (adaptive)
Weight generation scheme         WeightScheme... Becke
Basis function cutoff            BFCut       ... 1.0000e-10
Integration weight cutoff        WCut        ... 1.0000e-14
Angular grids for H and He will be reduced by one unit
Partially contracted basis set               ... on
Rotationally invariant grid construction     ... off

Total number of grid points                  ...     2142
Total number of batches                      ...       35
Average number of points per batch           ...       61
Average number of grid points per atom       ...      536
UseSFitting                                  ... on

GRIDX 2
-------
General Integration Accuracy     IntAcc      ... 4.020
Radial Grid Type                 RadialGrid  ... OptM3 with GC (2021)
Angular Grid (max. ang.)         AngularGrid ... 2 (Lebedev-110)
Angular grid pruning method      GridPruning ... 4 (adaptive)
Weight generation scheme         WeightScheme... Becke
Basis function cutoff            BFCut       ... 1.0000e-10
Integration weight cutoff        WCut        ... 1.0000e-14
Angular grids for H and He will be reduced by one unit
Partially contracted basis set               ... on
Rotationally invariant grid construction     ... off

Total number of grid points                  ...     5042
Total number of batches                      ...       80
Average number of points per batch           ...       63
Average number of grid points per atom       ...     1260
UseSFitting                                  ... on

GRIDX 3
-------
General Integration Accuracy     IntAcc      ... 4.338
Radial Grid Type                 RadialGrid  ... OptM3 with GC (2021)
Angular Grid (max. ang.)         AngularGrid ... 3 (Lebedev-194)
Angular grid pruning method      GridPruning ... 4 (adaptive)
Weight generation scheme         WeightScheme... Becke
Basis function cutoff            BFCut       ... 1.0000e-10
Integration weight cutoff        WCut        ... 1.0000e-14
Angular grids for H and He will be reduced by one unit
Partially contracted basis set               ... on
Rotationally invariant grid construction     ... off

Total number of grid points                  ...    11733
Total number of batches                      ...      185
Average number of points per batch           ...       63
Average number of grid points per atom       ...     2933
UseSFitting                                  ... on

Time for X-Grid setup             =    0.329 sec

--------------
SCF ITERATIONS
--------------
ITER       Energy         Delta-E        Max-DP      RMS-DP      [F,P]     Damp
               ***  Starting incremental Fock matrix formation  ***
  0    -39.7855197128   0.000000000000 0.01468964  0.00048691  0.0873067 0.7000
  1    -39.8031603217  -0.017640608952 0.00918336  0.00036412  0.0460699 0.7000
                               ***Turning on DIIS***
  2    -39.8109313073  -0.007770985573 0.01661746  0.00063438  0.0188174 0.0000
  3    -39.8215541594  -0.010622852094 0.00844610  0.00027584  0.0276865 0.0000
  4    -39.8248421440  -0.003287984631 0.00296154  0.00007735  0.0056894 0.0000
  5    -39.8249753670  -0.000133222940 0.00106692  0.00003293  0.0019111 0.0000
  6    -39.8249931489  -0.000017781926 0.00089744  0.00002582  0.0008152 0.0000
               *** Restarting incremental Fock matrix formation ***
                                   *** Resetting DIIS ***
  7    -39.8249881816   0.000004967287 0.00010844  0.00000314  0.0001012 0.0000
                 **** Energy Check signals convergence ****

               *****************************************************
               *                     SUCCESS                       *
               *           SCF CONVERGED AFTER   8 CYCLES          *
               *****************************************************

Old exchange energy                            =     -1.236628948 Eh
New exchange energy                            =     -1.236627149 Eh
Exchange energy change after final integration =      0.000001799 Eh
Total energy after final integration           =    -39.824986462 Eh
Final COS-X integration done in                =     0.173 sec

----------------
TOTAL SCF ENERGY
----------------

Total Energy       :          -39.82498646 Eh           -1083.69298 eV

Components:
Nuclear Repulsion  :            9.49368143 Eh             258.33621 eV
Electronic Energy  :          -49.31866790 Eh           -1342.02918 eV
One Electron Energy:          -71.31491652 Eh           -1940.57754 eV
Two Electron Energy:           21.99624862 Eh             598.54835 eV
Max COSX asymmetry :            0.00000007 Eh               0.00000 eV

Virial components:
Potential Energy   :          -79.36889436 Eh           -2159.73741 eV
Kinetic Energy     :           39.54390790 Eh            1076.04444 eV
Virial Ratio       :            2.00710801


DFT components:
N(Alpha)           :        4.999999771653 electrons
N(Beta)            :        4.000000469011 electrons
N(Total)           :        9.000000240664 electrons
E(X)               :       -4.896104356673 Eh       
E(C)               :       -0.308653649010 Eh       
E(XC)              :       -5.204758005684 Eh       
DFET-embed. en.    :        0.000000000000 Eh       

---------------
SCF CONVERGENCE
---------------

  Last Energy change         ...   -7.9691e-08  Tolerance :   1.0000e-06
  Last MAX-Density change    ...    0.0000e+00  Tolerance :   1.0000e-05
  Last RMS-Density change    ...    0.0000e+00  Tolerance :   1.0000e-06
  Last DIIS Error            ...    6.3249e-05  Tolerance :   1.0000e-06

             **** THE GBW FILE WAS UPDATED (/home/rwth0701/scratch/cs681498/orcajob__30556408-Mf7a/12183.gbw) ****
             **** DENSITY /home/rwth0701/scratch/cs681498/orcajob__30556408-Mf7a/12183.scfp WAS UPDATED ****
             **** ENERGY FILE WAS UPDATED (/home/rwth0701/scratch/cs681498/orcajob__30556408-Mf7a/12183.en.tmp) ****
----------------------
UHF SPIN CONTAMINATION
----------------------

Warning: in a DFT calculation there is little theoretical justification to 
         calculate <S**2> as in Hartree-Fock theory. We will do it anyways
         but you should keep in mind that the values have only limited relevance

Expectation value of <S**2>     :     0.753870
Ideal value S*(S+1) for S=0.5   :     0.750000
Deviation                       :     0.003870

             **** THE GBW FILE WAS UPDATED (/home/rwth0701/scratch/cs681498/orcajob__30556408-Mf7a/12183.gbw) ****
             **** DENSITY /home/rwth0701/scratch/cs681498/orcajob__30556408-Mf7a/12183.scfp WAS UPDATED ****
----------------
ORBITAL ENERGIES
----------------
                 SPIN UP ORBITALS
  NO   OCC          E(Eh)            E(eV) 
   0   1.0000     -10.190227      -277.2902 
   1   1.0000      -0.682787       -18.5796 
   2   1.0000      -0.423264       -11.5176 
   3   1.0000      -0.412916       -11.2360 
   4   1.0000      -0.234834        -6.3902 
   5   0.0000       0.000085         0.0023 
   6   0.0000       0.035916         0.9773 
   7   0.0000       0.037422         1.0183 
   8   0.0000       0.047387         1.2895 
   9   0.0000       0.081466         2.2168 
  10   0.0000       0.091405         2.4872 
  11   0.0000       0.095944         2.6108 
  12   0.0000       0.220528         6.0009 
  13   0.0000       0.226675         6.1681 
  14   0.0000       0.245622         6.6837 
  15   0.0000       0.275853         7.5063 
  16   0.0000       0.293103         7.9757 
  17   0.0000       0.305885         8.3236 
  18   0.0000       0.339620         9.2415 
  19   0.0000       0.547990        14.9116 
  20   0.0000       0.563885        15.3441 
  21   0.0000       0.741048        20.1649 
  22   0.0000       0.749028        20.3821 
  23   0.0000       0.770234        20.9591 
  24   0.0000       0.818593        22.2751 
  25   0.0000       0.879781        23.9401 
  26   0.0000       0.884980        24.0815 
  27   0.0000       0.941259        25.6130 
  28   0.0000       0.952605        25.9217 
  29   0.0000       1.059273        28.8243 
  30   0.0000       1.076444        29.2915 
  31   0.0000       1.094517        29.7833 
  32   0.0000       1.160441        31.5772 
  33   0.0000       1.164112        31.6771 
  34   0.0000       1.451435        39.4955 
  35   0.0000       1.459105        39.7043 
  36   0.0000       1.489438        40.5297 
  37   0.0000       1.701252        46.2934 
  38   0.0000       1.722665        46.8761 
  39   0.0000       1.739089        47.3230 
  40   0.0000       2.721131        74.0457 
  41   0.0000       2.734556        74.4111 
  42   0.0000       2.885675        78.5232 
  43   0.0000       2.899005        78.8859 
  44   0.0000       2.930865        79.7529 
  45   0.0000       2.964169        80.6592 
  46   0.0000       2.976800        81.0029 
  47   0.0000       3.150358        85.7256 
  48   0.0000       3.174663        86.3870 
  49   0.0000       3.248630        88.3997 
  50   0.0000       3.262124        88.7669 
  51   0.0000       3.685939       100.2995 
  52   0.0000       3.717041       101.1458 
  53   0.0000       3.772950       102.6672 
  54   0.0000       3.916404       106.5708 
  55   0.0000       3.920627       106.6857 
  56   0.0000       4.036135       109.8288 
  57   0.0000       4.097685       111.5037 
  58   0.0000       4.109937       111.8371 
  59   0.0000       4.126797       112.2958 
  60   0.0000       4.600196       125.1777 
  61   0.0000       4.987243       135.7098 
  62   0.0000       5.263549       143.2284 
  63   0.0000       5.386209       146.5662 
  64   0.0000       5.511188       149.9670 
  65   0.0000       6.026530       163.9902 
  66   0.0000       6.119361       166.5163 
  67   0.0000       7.689459       209.2408 
  68   0.0000      29.042059       790.2746 
  69   0.0000      37.063397      1008.5463 
  70   0.0000      37.197372      1012.1920 
  71   0.0000      37.224003      1012.9166 
  72   0.0000     133.493073      3632.5312 

                 SPIN DOWN ORBITALS
  NO   OCC          E(Eh)            E(eV) 
   0   1.0000     -10.175669      -276.8940 
   1   1.0000      -0.643153       -17.5011 
   2   1.0000      -0.414031       -11.2664 
   3   1.0000      -0.403576       -10.9819 
   4   0.0000      -0.077114        -2.0984 
   5   0.0000       0.003463         0.0942 
   6   0.0000       0.035614         0.9691 
   7   0.0000       0.037067         1.0087 
   8   0.0000       0.060704         1.6519 
   9   0.0000       0.084920         2.3108 
  10   0.0000       0.091928         2.5015 
  11   0.0000       0.099356         2.7036 
  12   0.0000       0.221583         6.0296 
  13   0.0000       0.227806         6.1989 
  14   0.0000       0.264221         7.1898 
  15   0.0000       0.299578         8.1519 
  16   0.0000       0.310360         8.4453 
  17   0.0000       0.311368         8.4728 
  18   0.0000       0.352512         9.5923 
  19   0.0000       0.573605        15.6086 
  20   0.0000       0.591284        16.0896 
  21   0.0000       0.741891        20.1879 
  22   0.0000       0.750200        20.4140 
  23   0.0000       0.797573        21.7031 
  24   0.0000       0.817152        22.2358 
  25   0.0000       0.883053        24.0291 
  26   0.0000       0.890398        24.2289 
  27   0.0000       0.958360        26.0783 
  28   0.0000       0.970796        26.4167 
  29   0.0000       1.093567        29.7575 
  30   0.0000       1.116099        30.3706 
  31   0.0000       1.124976        30.6122 
  32   0.0000       1.172535        31.9063 
  33   0.0000       1.176654        32.0184 
  34   0.0000       1.460323        39.7374 
  35   0.0000       1.478486        40.2317 
  36   0.0000       1.497288        40.7433 
  37   0.0000       1.710229        46.5377 
  38   0.0000       1.726340        46.9761 
  39   0.0000       1.748692        47.5843 
  40   0.0000       2.761973        75.1571 
  41   0.0000       2.775256        75.5186 
  42   0.0000       2.897615        78.8481 
  43   0.0000       2.931311        79.7650 
  44   0.0000       2.954160        80.3868 
  45   0.0000       2.989126        81.3383 
  46   0.0000       3.030034        82.4514 
  47   0.0000       3.203199        87.1635 
  48   0.0000       3.226130        87.7875 
  49   0.0000       3.307061        89.9897 
  50   0.0000       3.320971        90.3682 
  51   0.0000       3.686054       100.3026 
  52   0.0000       3.771849       102.6372 
  53   0.0000       3.776558       102.7654 
  54   0.0000       3.920083       106.6709 
  55   0.0000       3.928626       106.9034 
  56   0.0000       4.051709       110.2526 
  57   0.0000       4.100422       111.5782 
  58   0.0000       4.114076       111.9497 
  59   0.0000       4.152788       113.0031 
  60   0.0000       4.600138       125.1761 
  61   0.0000       5.008085       136.2769 
  62   0.0000       5.263695       143.2324 
  63   0.0000       5.384503       146.5198 
  64   0.0000       5.508332       149.8893 
  65   0.0000       6.027549       164.0179 
  66   0.0000       6.122729       166.6079 
  67   0.0000       7.724427       210.1924 
  68   0.0000      29.068937       791.0060 
  69   0.0000      37.050704      1008.2009 
  70   0.0000      37.184752      1011.8485 
  71   0.0000      37.212674      1012.6084 
  72   0.0000     133.501011      3632.7472 

                    ********************************
                    * MULLIKEN POPULATION ANALYSIS *
                    ********************************

--------------------------------------------
MULLIKEN ATOMIC CHARGES AND SPIN POPULATIONS
--------------------------------------------
   0 C :   -0.427629    1.107296
   1 H :    0.145062   -0.035344
   2 H :    0.142030   -0.033236
   3 H :    0.140537   -0.038716
Sum of atomic charges         :    0.0000000
Sum of atomic spin populations:    1.0000000

-----------------------------------------------------
MULLIKEN REDUCED ORBITAL CHARGES AND SPIN POPULATIONS
-----------------------------------------------------
CHARGE
  0 C s       :     3.345180  s :     3.345180
      pz      :     0.969364  p :     3.055455
      px      :     1.037352
      py      :     1.048740
      dz2     :     0.005667  d :     0.024094
      dxz     :     0.000139
      dyz     :     0.000190
      dx2y2   :     0.008820
      dxy     :     0.009278
      f0      :     0.000040  f :     0.002900
      f+1     :     0.000676
      f-1     :     0.000646
      f+2     :     0.000018
      f-2     :     0.000030
      f+3     :     0.001450
      f-3     :     0.000040
  1 H s       :     0.828445  s :     0.828445
      pz      :     0.010477  p :     0.026493
      px      :     0.007664
      py      :     0.008351
  2 H s       :     0.830340  s :     0.830340
      pz      :     0.010884  p :     0.027630
      px      :     0.007457
      py      :     0.009290
  3 H s       :     0.835075  s :     0.835075
      pz      :     0.009576  p :     0.024388
      px      :     0.009192
      py      :     0.005621

SPIN
  0 C s       :     0.067917  s :     0.067917
      pz      :     0.960612  p :     1.043694
      px      :     0.039821
      py      :     0.043262
      dz2     :    -0.004650  d :    -0.002978
      dxz     :    -0.000007
      dyz     :    -0.000090
      dx2y2   :     0.000856
      dxy     :     0.000911
      f0      :    -0.000026  f :    -0.001337
      f+1     :    -0.000616
      f-1     :    -0.000603
      f+2     :    -0.000014
      f-2     :    -0.000012
      f+3     :    -0.000065
      f-3     :    -0.000000
  1 H s       :    -0.045525  s :    -0.045525
      pz      :     0.010391  p :     0.010181
      px      :    -0.000138
      py      :    -0.000072
  2 H s       :    -0.043558  s :    -0.043558
      pz      :     0.010820  p :     0.010322
      px      :    -0.000379
      py      :    -0.000119
  3 H s       :    -0.047961  s :    -0.047961
      pz      :     0.009510  p :     0.009245
      px      :    -0.000097
      py      :    -0.000168


                     *******************************
                     * LOEWDIN POPULATION ANALYSIS *
                     *******************************

-------------------------------------------
LOEWDIN ATOMIC CHARGES AND SPIN POPULATIONS
-------------------------------------------
   0 C :   -0.166582    0.916378
   1 H :    0.057025    0.027706
   2 H :    0.033563    0.035303
   3 H :    0.075995    0.020613

----------------------------------------------------
LOEWDIN REDUCED ORBITAL CHARGES AND SPIN POPULATIONS
----------------------------------------------------
CHARGE
  0 C s       :     2.897588  s :     2.897588
      pz      :     0.880257  p :     3.171136
      px      :     1.136951
      py      :     1.153928
      dz2     :     0.006835  d :     0.090520
      dxz     :     0.000497
      dyz     :     0.000458
      dx2y2   :     0.041287
      dxy     :     0.041443
      f0      :     0.000265  f :     0.007338
      f+1     :     0.001932
      f-1     :     0.001905
      f+2     :     0.000052
      f-2     :     0.000071
      f+3     :     0.002934
      f-3     :     0.000181
  1 H s       :     0.803174  s :     0.803174
      pz      :     0.040563  p :     0.139801
      px      :     0.042221
      py      :     0.057017
  2 H s       :     0.811606  s :     0.811606
      pz      :     0.045857  p :     0.154831
      px      :     0.042645
      py      :     0.066329
  3 H s       :     0.797558  s :     0.797558
      pz      :     0.035553  p :     0.126447
      px      :     0.065807
      py      :     0.025088

SPIN
  0 C s       :     0.020456  s :     0.020456
      pz      :     0.870419  p :     0.904814
      px      :     0.014835
      py      :     0.019560
      dz2     :    -0.003978  d :    -0.007557
      dxz     :    -0.000029
      dyz     :    -0.000087
      dx2y2   :    -0.001759
      dxy     :    -0.001703
      f0      :     0.000135  f :    -0.001336
      f+1     :    -0.000579
      f-1     :    -0.000552
      f+2     :    -0.000012
      f-2     :    -0.000014
      f+3     :    -0.000303
      f-3     :    -0.000011
  1 H s       :    -0.018042  s :    -0.018042
      pz      :     0.040091  p :     0.045748
      px      :     0.002152
      py      :     0.003506
  2 H s       :    -0.015738  s :    -0.015738
      pz      :     0.045403  p :     0.051041
      px      :     0.001504
      py      :     0.004134
  3 H s       :    -0.019993  s :    -0.019993
      pz      :     0.035241  p :     0.040605
      px      :     0.004690
      py      :     0.000674


                      *****************************
                      * MAYER POPULATION ANALYSIS *
                      *****************************

  NA   - Mulliken gross atomic population
  ZA   - Total nuclear charge
  QA   - Mulliken gross atomic charge
  VA   - Mayer's total valence
  BVA  - Mayer's bonded valence
  FA   - Mayer's free valence

  ATOM       NA         ZA         QA         VA         BVA        FA
  0 C      6.4276     6.0000    -0.4276     3.8704     2.9232     0.9472
  1 H      0.8549     1.0000     0.1451     0.9838     0.9817     0.0021
  2 H      0.8580     1.0000     0.1420     0.9795     0.9776     0.0019
  3 H      0.8595     1.0000     0.1405     0.9834     0.9812     0.0023

  Mayer bond orders larger than 0.100000
B(  0-C ,  1-H ) :   0.9741 B(  0-C ,  2-H ) :   0.9751 B(  0-C ,  3-H ) :   0.9740 


-------
TIMINGS
-------

Total SCF time: 0 days 0 hours 0 min 6 sec 

Total time                  ....       6.013 sec
Sum of individual times     ....       5.327 sec  ( 88.6%)

Fock matrix formation       ....       4.526 sec  ( 75.3%)
  Split-RI-J                ....       0.440 sec  (  9.7% of F)
  Chain of spheres X        ....       0.915 sec  ( 20.2% of F)
  XC integration            ....       1.937 sec  ( 42.8% of F)
    Basis function eval.    ....       0.110 sec  (  5.7% of XC)
    Density eval.           ....       0.122 sec  (  6.3% of XC)
    XC-Functional eval.     ....       0.120 sec  (  6.2% of XC)
    XC-Potential eval.      ....       0.155 sec  (  8.0% of XC)
Diagonalization             ....       0.063 sec  (  1.1%)
Density matrix formation    ....       0.002 sec  (  0.0%)
Population analysis         ....       0.087 sec  (  1.5%)
Initial guess               ....       0.047 sec  (  0.8%)
Orbital Transformation      ....       0.000 sec  (  0.0%)
Orbital Orthonormalization  ....       0.000 sec  (  0.0%)
DIIS solution               ....       0.093 sec  (  1.5%)
Grid generation             ....       0.509 sec  (  8.5%)

Maximum memory used throughout the entire SCF-calculation: 59.0 MB

-------------------------   --------------------
FINAL SINGLE POINT ENERGY       -39.824986462472
-------------------------   --------------------

   --->>> g-tensor requested, so NeedSOC=true

                            ***************************************
                            *     ORCA property calculations      *
                            ***************************************

                                    ---------------------
                                    Active property flags
                                    ---------------------
   (+) Dipole Moment
   (+) g-tensor
   (+) Nuclear properties (Hyperfine,Quadrupole)
   (+) Spin-Orbit Integrals are needed


------------------------------------------------------------------------------
                       ORCA ELECTRIC PROPERTIES CALCULATION
------------------------------------------------------------------------------

Dipole Moment Calculation                       ... on
Quadrupole Moment Calculation                   ... off
Polarizability Calculation                      ... off
GBWName                                         ... /home/rwth0701/scratch/cs681498/orcajob__30556408-Mf7a/12183.gbw
Electron density                                ... /home/rwth0701/scratch/cs681498/orcajob__30556408-Mf7a/12183.scfp
The origin for moment calculation is the CENTER OF MASS  = (-98.437349, -138.953228 -44.756073)

-------------
DIPOLE MOMENT
-------------
                                X             Y             Z
Electronic contribution:     -0.04042       0.02453      -0.02371
Nuclear contribution   :      0.02949      -0.03929       0.03658
                        -----------------------------------------
Total Dipole Moment    :     -0.01093      -0.01476       0.01287
                        -----------------------------------------
Magnitude (a.u.)       :      0.02243
Magnitude (Debye)      :      0.05701



--------------------
Rotational spectrum 
--------------------
 
Rotational constants in cm-1:    10.136284     8.397893     4.594596 
Rotational constants in MHz : 303878.139245 251762.497929 137742.533280 

 Dipole components along the rotational axes: 
x,y,z [a.u.] :    -0.004018    -0.016678     0.014446 
x,y,z [Debye]:    -0.010213    -0.042391     0.036720 

 


           ************************************************************
           *        Program running with 4 parallel MPI-processes     *
           *              working on a common directory               *
           ************************************************************
------------------------------------------------------------------------------
                         ORCA SPIN-ORBIT COUPLING CALCULATION
------------------------------------------------------------------------------

GBW file                                    ... /home/rwth0701/scratch/cs681498/orcajob__30556408-Mf7a/12183.gbw
Input density                               ... /home/rwth0701/scratch/cs681498/orcajob__30556408-Mf7a/12183.scfp
Output integrals                            ... /home/rwth0701/scratch/cs681498/orcajob__30556408-Mf7a/12183
Operator type                               ... Mean-field/Effective potential
   One-Electron Terms                       ... 1
   Coulomb Contribution                     ... 3
   Exchange Contribution                    ... 3
   Correlation Contribution                 ... 0
   Maximum number of centers                ... 4
SHARK 2-electron RIJ-SOMF                   ... done (  0.1 sec)
SHARK 1-electron  MaxCenter=4               ... done (  0.0 sec)
SHARK 2-electron DoJ,X=0,1 MaxCenter=1      ... done (  0.1 sec)

Maximum memory used throughout the entire SOC-calculation: 11.3 MB
Total time for SOC:  2.117


           ************************************************************
           *        Program running with 4 parallel MPI-processes     *
           *              working on a common directory               *
           ************************************************************
------------------------------------------------------------------------------
                                ORCA EPR/NMR CALCULATION
------------------------------------------------------------------------------

GBWName                      ... /home/rwth0701/scratch/cs681498/orcajob__30556408-Mf7a/12183.gbw
Electron density             ... /home/rwth0701/scratch/cs681498/orcajob__30556408-Mf7a/12183.scfp
Spin density                 ... /home/rwth0701/scratch/cs681498/orcajob__30556408-Mf7a/12183.scfr
Spin-orbit integrals         ... /home/rwth0701/scratch/cs681498/orcajob__30556408-Mf7a/12183
Treatment of gauge           ... GIAO (approximations 1/2el = 0,0)
Details of the CP(SCF) procedure:
       Solver   = POPLE   
       MaxIter  =    64   
       Tolerance=    1.000e-03
       COSX Grid=     1   
       Op-0     =   0-  4 =>   5- 72
       Op-1     =   0-  3 =>   4- 72
Multiplicity                 ... 2
g-tensor                     ... 1
NMR chemical shifts          ... 0
NMR spin-spin couplings      ... 0
NMR spectrum                 ... 0
Number of nuclei for epr/nmr ... 4
   Nucleus:   1H 
       Hyperfine : Isotope=    1 I=   0.500 P= 533.551
       Quadrupole: Isotope=    2 I=   1.000 Q=   0.003
       Spin-Orbit: Zeff=   1.000
       Nuclear Spin-Spin: Gn=   0.000
       EPRNMR Input: 
       rho(0)=N f(grad)=N a(iso)=Y a(dip)=Y a(orb)=Y sigma(nmr)=N spin-spin(nmr)=all-N,DSO-N,PSO-N,FC-N,SD-N
   Nucleus:   2H 
       Hyperfine : Isotope=    1 I=   0.500 P= 533.551
       Quadrupole: Isotope=    2 I=   1.000 Q=   0.003
       Spin-Orbit: Zeff=   1.000
       Nuclear Spin-Spin: Gn=   0.000
       EPRNMR Input: 
       rho(0)=N f(grad)=N a(iso)=Y a(dip)=Y a(orb)=Y sigma(nmr)=N spin-spin(nmr)=all-N,DSO-N,PSO-N,FC-N,SD-N
   Nucleus:   3H 
       Hyperfine : Isotope=    1 I=   0.500 P= 533.551
       Quadrupole: Isotope=    2 I=   1.000 Q=   0.003
       Spin-Orbit: Zeff=   1.000
       Nuclear Spin-Spin: Gn=   0.000
       EPRNMR Input: 
       rho(0)=N f(grad)=N a(iso)=Y a(dip)=Y a(orb)=Y sigma(nmr)=N spin-spin(nmr)=all-N,DSO-N,PSO-N,FC-N,SD-N
   Nucleus:   0C 
       Hyperfine : Isotope=   13 I=   0.500 P= 134.190
       Quadrupole: Isotope=   13 I=   0.500 Q=   0.000
       Spin-Orbit: Zeff=   3.600
       Nuclear Spin-Spin: Gn=   0.000
       EPRNMR Input: 
       rho(0)=N f(grad)=N a(iso)=Y a(dip)=Y a(orb)=Y sigma(nmr)=N spin-spin(nmr)=all-N,DSO-N,PSO-N,FC-N,SD-N
Forming RHS of the CP-SCF equations         ... 
Calculating right hand sides for GIAO treatment        ... 
  Entering RightHandSide GIAO. ScalHFX=    0.2000 NeedHFX=1
     -> 1-electron GIAO integrals will be done analytically
     -> RIJCOSX used in SCF. Same chosen for GIAO calculation.
     Making grid for GIAO integrations   ...

GRID GIAO
---------

General Integration Accuracy     IntAcc      ... 4.388
Radial Grid Type                 RadialGrid  ... OptM3 with GC (2021)
Angular Grid (max. ang.)         AngularGrid ... 4 (Lebedev-302)
Angular grid pruning method      GridPruning ... 4 (adaptive)
Weight generation scheme         WeightScheme... Becke
Basis function cutoff            BFCut       ... 1.0000e-10
Integration weight cutoff        WCut        ... 1.0000e-14
Angular grids for H and He will be reduced by one unit
Partially contracted basis set               ... off
Rotationally invariant grid construction     ... off

Total number of grid points                  ...    17031
Total number of batches                      ...      268
Average number of points per batch           ...       63
Average number of grid points per atom       ...     4258

  One-electron GIAO integrals (SHARK)     ... done
  Calculating G(B)[P]                     ... (RI-J: SHARK-ok) (COSX-ok) (add-J+K:ok) => dG/dB done
  DFT XC-terms                            ... done
  Extracting occupied and virtual blocks  ... 
  Operator  0  NO=   5 NV=  68 
  Operator  1  NO=   4 NV=  69 
  Transforming and RHS contribution       ... done
  Adding eps_i * S(B)_ai terms            ... done
  Projecting overlap derivatives          ... done
  Building G[dS/dB_ij] (COSX)             ... done
  Transforming to MO basis                ... done
  Summing G[dS/dB_ij] into RHS contribs.  ... done

  GIAO profiling information: 
    Total GIAO time               ...       0.8 sec
       GIAO 1-electron integrals  ...       0.0 sec (  0.4%)
       GIAO G(dS/dB) terms        ...       0.1 sec ( 14.4%)
       GIAO RI-J                  ...       0.1 sec ( 13.3%)
       GIAO COSX                  ...       0.1 sec ( 18.0%)
       GIAO XC-terms              ...       0.3 sec ( 36.0%)

  GIAO right hand side done


------------------------------------------------------------------------------
                           ORCA CP-SCF CALCULATION
------------------------------------------------------------------------------

Input orbitals are from        ... /home/rwth0701/scratch/cs681498/orcajob__30556408-Mf7a/12183.gbw
Input Perturbation             ... /home/rwth0701/scratch/cs681498/orcajob__30556408-Mf7a/12183.pin.tmp
Wavefunction output            ... /home/rwth0701/scratch/cs681498/orcajob__30556408-Mf7a/12183.pout.tmp
Perturbation mode              ... Imaginary perturbation
Solver                         ... POPLE
Max. number of iterations      ... 64
Convergence tolerance          ... 1.000e-03
Integral handling              ... Direct
DFT GridXC                     ... 1
COSX GridX                     ... 1
COSX IntAccX                   ... 3.067
COSX Algorithm                 ... Auto
Number of perturbations        ... 3
Number of operators            ... 2
Orbital ranges used for CP-SCF:
 Operator 0:  Orbitals   0...  4  to   5... 72
 Operator 1:  Orbitals   0...  3  to   4... 72
Variables per perturbation     ... 616
DFT calculation                         ... on
XC functional terms                     ... off
Hybrid DFT                              ... on
   Exchange mixing (SCF)                ...  0.200
   Exchange mixing (CP-SCF)             ...  0.200
   GGA exch. scaling(SCF)               ...  0.720
   GGA exch. scaling (CP-SCF)           ...  0.720
   GGA corr. scaling (SCF)              ...  0.810
   GGA corr. scaling (CP-SCF)           ...  0.810

CP-SCF GRID
-----------

General Integration Accuracy     IntAcc      ... 3.467
Radial Grid Type                 RadialGrid  ... OptM3 with GC (2021)
Angular Grid (max. ang.)         AngularGrid ... 1 (Lebedev-50)
Angular grid pruning method      GridPruning ... 4 (adaptive)
Weight generation scheme         WeightScheme... Becke
Basis function cutoff            BFCut       ... 1.0000e-10
Integration weight cutoff        WCut        ... 1.0000e-14
Angular grids for H and He will be reduced by one unit
Partially contracted basis set               ... off
Rotationally invariant grid construction     ... off

Total number of grid points                  ...     2339
Total number of batches                      ...       38
Average number of points per batch           ...       61
Average number of grid points per atom       ...      585

CP-SCF GRIDX
------------

General Integration Accuracy     IntAcc      ... 3.067
Radial Grid Type                 RadialGrid  ... OptM3 with GC (2021)
Angular Grid (max. ang.)         AngularGrid ... 1 (Lebedev-50)
Angular grid pruning method      GridPruning ... 4 (adaptive)
Weight generation scheme         WeightScheme... Becke
Basis function cutoff            BFCut       ... 1.0000e-10
Integration weight cutoff        WCut        ... 1.0000e-14
Angular grids for H and He will be reduced by one unit
Partially contracted basis set               ... on
Rotationally invariant grid construction     ... off

Total number of grid points                  ...     1070
Total number of batches                      ...       20
Average number of points per batch           ...       53
Average number of grid points per atom       ...      268

Memory available               ... 1014.6 MB
Memory needed per perturbation ...   0.4 MB
Perturbations treated per batch... 3
Number of batches              ... 1
     CP-SCF ITERATION   0:   8.4292e+00 (   0.1 sec   0/  3 done)
     CP-SCF ITERATION   1:   6.1898e-02 (   0.1 sec   0/  3 done)
     CP-SCF ITERATION   2:   3.3154e-03 (   0.1 sec   0/  3 done)
     CP-SCF ITERATION   3:   1.9887e-04 (   0.1 sec   3/  3 done)
                    *** THE CP-SCF HAS CONVERGED ***

Forming final perturbed densities           ... done
Transforming perturbed density to AO basis  ... done

Magnetic field perturbation calculated in  1.323 sec
GIAO: Diamagnetic terms      (analytic)     (SHARK) ... done
GIAO: 1el-Paramagnetic terms (analytic)     (SHARK) ... done

-------------------
ELECTRONIC G-MATRIX
-------------------

 The g-matrix: 
              2.0029022   -0.0000164    0.0000181
             -0.0000198    2.0028626    0.0000532
              0.0000351    0.0000796    2.0022478

 gel          2.0023193    2.0023193    2.0023193
 gRMC        -0.0001276   -0.0001276   -0.0001276
 gDSO(tot)    0.0000344    0.0000708    0.0000708
 gPSO(tot)    0.0000134    0.0006014    0.0006467
             ----------   ----------   ----------
 g(tot)       2.0022395    2.0028639    2.0029092 iso=  2.0026709
 Delta-g     -0.0000798    0.0005446    0.0005899 iso=  0.0003516
 Orientation: 
  X          -0.0428044    0.3575148   -0.9329260
  Y          -0.1071427    0.9267542    0.3600655
  Z           0.9933218    0.1153686   -0.0013641

Notes:  (1) The g-matrix conforms to the "BgS" spin Hamiltonian convention. 
        (2) The principal values are square roots of the eigenvalues of g*gT.
        (3) Orientations are eigenvectors of g*gT written as column vectors.
        (4) Individual contributions are projections of the full matrices onto the eigenvectors of g*gT.
        (5) Tensor is right-handed.


-----------------------------------------
ELECTRIC AND MAGNETIC HYPERFINE STRUCTURE
-----------------------------------------

 -----------------------------------------------------------
 Nucleus   1H : A:ISTP=    1 I=  0.5 P=533.5514 MHz/au**3
                Q:ISTP=    2 I=  1.0 Q=  0.0029 barn     
 -----------------------------------------------------------
 Solving for nuclear perturbation:
Forming RHS of the CP-SCF equations         ... 
Calc. nucleus orbit integrals (SHARK)       ... done

------------------------------------------------------------------------------
                           ORCA CP-SCF CALCULATION
------------------------------------------------------------------------------

Input orbitals are from        ... /home/rwth0701/scratch/cs681498/orcajob__30556408-Mf7a/12183.gbw
Input Perturbation             ... /home/rwth0701/scratch/cs681498/orcajob__30556408-Mf7a/12183.pin.tmp
Wavefunction output            ... /home/rwth0701/scratch/cs681498/orcajob__30556408-Mf7a/12183.pout.tmp
Perturbation mode              ... Imaginary perturbation
Solver                         ... POPLE
Max. number of iterations      ... 64
Convergence tolerance          ... 1.000e-03
Integral handling              ... Direct
DFT GridXC                     ... 1
COSX GridX                     ... 1
COSX IntAccX                   ... 3.067
COSX Algorithm                 ... Auto
Number of perturbations        ... 3
Number of operators            ... 2
Orbital ranges used for CP-SCF:
 Operator 0:  Orbitals   0...  4  to   5... 72
 Operator 1:  Orbitals   0...  3  to   4... 72
Variables per perturbation     ... 616
DFT calculation                         ... on
XC functional terms                     ... off
Hybrid DFT                              ... on
   Exchange mixing (SCF)                ...  0.200
   Exchange mixing (CP-SCF)             ...  0.200
   GGA exch. scaling(SCF)               ...  0.720
   GGA exch. scaling (CP-SCF)           ...  0.720
   GGA corr. scaling (SCF)              ...  0.810
   GGA corr. scaling (CP-SCF)           ...  0.810

CP-SCF GRID
-----------

General Integration Accuracy     IntAcc      ... 3.467
Radial Grid Type                 RadialGrid  ... OptM3 with GC (2021)
Angular Grid (max. ang.)         AngularGrid ... 1 (Lebedev-50)
Angular grid pruning method      GridPruning ... 4 (adaptive)
Weight generation scheme         WeightScheme... Becke
Basis function cutoff            BFCut       ... 1.0000e-10
Integration weight cutoff        WCut        ... 1.0000e-14
Angular grids for H and He will be reduced by one unit
Partially contracted basis set               ... off
Rotationally invariant grid construction     ... off

Total number of grid points                  ...     2339
Total number of batches                      ...       38
Average number of points per batch           ...       61
Average number of grid points per atom       ...      585

CP-SCF GRIDX
------------

General Integration Accuracy     IntAcc      ... 3.067
Radial Grid Type                 RadialGrid  ... OptM3 with GC (2021)
Angular Grid (max. ang.)         AngularGrid ... 1 (Lebedev-50)
Angular grid pruning method      GridPruning ... 4 (adaptive)
Weight generation scheme         WeightScheme... Becke
Basis function cutoff            BFCut       ... 1.0000e-10
Integration weight cutoff        WCut        ... 1.0000e-14
Angular grids for H and He will be reduced by one unit
Partially contracted basis set               ... on
Rotationally invariant grid construction     ... off

Total number of grid points                  ...     1070
Total number of batches                      ...       20
Average number of points per batch           ...       53
Average number of grid points per atom       ...      268

Memory available               ... 968.0 MB
Memory needed per perturbation ...   0.4 MB
Perturbations treated per batch... 3
Number of batches              ... 1
     CP-SCF ITERATION   0:   6.4362e-02 (   0.1 sec   0/  3 done)
     CP-SCF ITERATION   1:   2.4291e-03 (   0.1 sec   1/  3 done)
     CP-SCF ITERATION   2:   2.1632e-04 (   0.1 sec   3/  3 done)
                    *** THE CP-SCF HAS CONVERGED ***

Forming final perturbed densities           ... done
Transforming perturbed density to AO basis  ... done

 Raw HFC matrix (all values in MHz): 
 -----------------------------------
               -80.2077             -35.6302              -3.9505
               -35.6290             -53.6297               0.6031
                -3.9504               0.6031             -66.6296

 A(FC)         -66.8359             -66.8359             -66.8359
 A(SD)          38.1326               0.2262             -38.3587
 A(ORB+DIA)      0.0115              -0.0006               0.0298    A(PC) =   0.0136
 A(ORB)          0.0068               0.0005               0.0285    A(PC) =   0.0119
 A(DIA)          0.0047              -0.0011               0.0013    A(PC) =   0.0016
             ----------           ----------           ----------
 A(Tot)        -28.6918             -66.6103            -105.1648    A(iso)=  -66.8223
 Orientation: 
  X           0.5710895            0.0204895            0.8206320
  Y          -0.8176830            0.1024486            0.5664793
  Z          -0.0724657           -0.9945273            0.0752612

Notes:  (1) The A matrix conforms to the "SAI" spin Hamiltonian convention.
        (2) Tensor is right-handed.

 -----------------------------------------------------------
 Nucleus   2H : A:ISTP=    1 I=  0.5 P=533.5514 MHz/au**3
                Q:ISTP=    2 I=  1.0 Q=  0.0029 barn     
 -----------------------------------------------------------
 Solving for nuclear perturbation:
Forming RHS of the CP-SCF equations         ... 
Calc. nucleus orbit integrals (SHARK)       ... done

------------------------------------------------------------------------------
                           ORCA CP-SCF CALCULATION
------------------------------------------------------------------------------

Input orbitals are from        ... /home/rwth0701/scratch/cs681498/orcajob__30556408-Mf7a/12183.gbw
Input Perturbation             ... /home/rwth0701/scratch/cs681498/orcajob__30556408-Mf7a/12183.pin.tmp
Wavefunction output            ... /home/rwth0701/scratch/cs681498/orcajob__30556408-Mf7a/12183.pout.tmp
Perturbation mode              ... Imaginary perturbation
Solver                         ... POPLE
Max. number of iterations      ... 64
Convergence tolerance          ... 1.000e-03
Integral handling              ... Direct
DFT GridXC                     ... 1
COSX GridX                     ... 1
COSX IntAccX                   ... 3.067
COSX Algorithm                 ... Auto
Number of perturbations        ... 3
Number of operators            ... 2
Orbital ranges used for CP-SCF:
 Operator 0:  Orbitals   0...  4  to   5... 72
 Operator 1:  Orbitals   0...  3  to   4... 72
Variables per perturbation     ... 616
DFT calculation                         ... on
XC functional terms                     ... off
Hybrid DFT                              ... on
   Exchange mixing (SCF)                ...  0.200
   Exchange mixing (CP-SCF)             ...  0.200
   GGA exch. scaling(SCF)               ...  0.720
   GGA exch. scaling (CP-SCF)           ...  0.720
   GGA corr. scaling (SCF)              ...  0.810
   GGA corr. scaling (CP-SCF)           ...  0.810

CP-SCF GRID
-----------

General Integration Accuracy     IntAcc      ... 3.467
Radial Grid Type                 RadialGrid  ... OptM3 with GC (2021)
Angular Grid (max. ang.)         AngularGrid ... 1 (Lebedev-50)
Angular grid pruning method      GridPruning ... 4 (adaptive)
Weight generation scheme         WeightScheme... Becke
Basis function cutoff            BFCut       ... 1.0000e-10
Integration weight cutoff        WCut        ... 1.0000e-14
Angular grids for H and He will be reduced by one unit
Partially contracted basis set               ... off
Rotationally invariant grid construction     ... off

Total number of grid points                  ...     2339
Total number of batches                      ...       38
Average number of points per batch           ...       61
Average number of grid points per atom       ...      585

CP-SCF GRIDX
------------

General Integration Accuracy     IntAcc      ... 3.067
Radial Grid Type                 RadialGrid  ... OptM3 with GC (2021)
Angular Grid (max. ang.)         AngularGrid ... 1 (Lebedev-50)
Angular grid pruning method      GridPruning ... 4 (adaptive)
Weight generation scheme         WeightScheme... Becke
Basis function cutoff            BFCut       ... 1.0000e-10
Integration weight cutoff        WCut        ... 1.0000e-14
Angular grids for H and He will be reduced by one unit
Partially contracted basis set               ... on
Rotationally invariant grid construction     ... off

Total number of grid points                  ...     1070
Total number of batches                      ...       20
Average number of points per batch           ...       53
Average number of grid points per atom       ...      268

Memory available               ... 967.8 MB
Memory needed per perturbation ...   0.4 MB
Perturbations treated per batch... 3
Number of batches              ... 1
     CP-SCF ITERATION   0:   6.8355e-02 (   0.1 sec   0/  3 done)
     CP-SCF ITERATION   1:   2.4228e-03 (   0.1 sec   1/  3 done)
     CP-SCF ITERATION   2:   2.1180e-04 (   0.1 sec   3/  3 done)
                    *** THE CP-SCF HAS CONVERGED ***

Forming final perturbed densities           ... done
Transforming perturbed density to AO basis  ... done

 Raw HFC matrix (all values in MHz): 
 -----------------------------------
               -88.2802              32.5935               1.6925
                32.5930             -40.2166               2.1456
                 1.6924               2.1455             -60.4522

 A(FC)         -62.9971             -62.9971             -62.9971
 A(SD)          39.4278               2.3577             -41.7855
 A(ORB+DIA)      0.0104              -0.0006               0.0325    A(PC) =   0.0141
 A(ORB)          0.0051               0.0006               0.0310    A(PC) =   0.0122
 A(DIA)          0.0052              -0.0012               0.0015    A(PC) =   0.0019
             ----------           ----------           ----------
 A(Tot)        -23.5590             -60.6399            -104.7501    A(iso)=  -62.9830
 Orientation: 
  X           0.4501105           -0.0216800            0.8927096
  Y           0.8900323           -0.0701712           -0.4504648
  Z           0.0724086            0.9972993           -0.0122889

Notes:  (1) The A matrix conforms to the "SAI" spin Hamiltonian convention.
        (2) Tensor is right-handed.

 -----------------------------------------------------------
 Nucleus   3H : A:ISTP=    1 I=  0.5 P=533.5514 MHz/au**3
                Q:ISTP=    2 I=  1.0 Q=  0.0029 barn     
 -----------------------------------------------------------
 Solving for nuclear perturbation:
Forming RHS of the CP-SCF equations         ... 
Calc. nucleus orbit integrals (SHARK)       ... done

------------------------------------------------------------------------------
                           ORCA CP-SCF CALCULATION
------------------------------------------------------------------------------

Input orbitals are from        ... /home/rwth0701/scratch/cs681498/orcajob__30556408-Mf7a/12183.gbw
Input Perturbation             ... /home/rwth0701/scratch/cs681498/orcajob__30556408-Mf7a/12183.pin.tmp
Wavefunction output            ... /home/rwth0701/scratch/cs681498/orcajob__30556408-Mf7a/12183.pout.tmp
Perturbation mode              ... Imaginary perturbation
Solver                         ... POPLE
Max. number of iterations      ... 64
Convergence tolerance          ... 1.000e-03
Integral handling              ... Direct
DFT GridXC                     ... 1
COSX GridX                     ... 1
COSX IntAccX                   ... 3.067
COSX Algorithm                 ... Auto
Number of perturbations        ... 3
Number of operators            ... 2
Orbital ranges used for CP-SCF:
 Operator 0:  Orbitals   0...  4  to   5... 72
 Operator 1:  Orbitals   0...  3  to   4... 72
Variables per perturbation     ... 616
DFT calculation                         ... on
XC functional terms                     ... off
Hybrid DFT                              ... on
   Exchange mixing (SCF)                ...  0.200
   Exchange mixing (CP-SCF)             ...  0.200
   GGA exch. scaling(SCF)               ...  0.720
   GGA exch. scaling (CP-SCF)           ...  0.720
   GGA corr. scaling (SCF)              ...  0.810
   GGA corr. scaling (CP-SCF)           ...  0.810

CP-SCF GRID
-----------

General Integration Accuracy     IntAcc      ... 3.467
Radial Grid Type                 RadialGrid  ... OptM3 with GC (2021)
Angular Grid (max. ang.)         AngularGrid ... 1 (Lebedev-50)
Angular grid pruning method      GridPruning ... 4 (adaptive)
Weight generation scheme         WeightScheme... Becke
Basis function cutoff            BFCut       ... 1.0000e-10
Integration weight cutoff        WCut        ... 1.0000e-14
Angular grids for H and He will be reduced by one unit
Partially contracted basis set               ... off
Rotationally invariant grid construction     ... off

Total number of grid points                  ...     2339
Total number of batches                      ...       38
Average number of points per batch           ...       61
Average number of grid points per atom       ...      585

CP-SCF GRIDX
------------

General Integration Accuracy     IntAcc      ... 3.067
Radial Grid Type                 RadialGrid  ... OptM3 with GC (2021)
Angular Grid (max. ang.)         AngularGrid ... 1 (Lebedev-50)
Angular grid pruning method      GridPruning ... 4 (adaptive)
Weight generation scheme         WeightScheme... Becke
Basis function cutoff            BFCut       ... 1.0000e-10
Integration weight cutoff        WCut        ... 1.0000e-14
Angular grids for H and He will be reduced by one unit
Partially contracted basis set               ... on
Rotationally invariant grid construction     ... off

Total number of grid points                  ...     1070
Total number of batches                      ...       20
Average number of points per batch           ...       53
Average number of grid points per atom       ...      268

Memory available               ... 967.7 MB
Memory needed per perturbation ...   0.4 MB
Perturbations treated per batch... 3
Number of batches              ... 1
     CP-SCF ITERATION   0:   5.7768e-02 (   0.1 sec   0/  3 done)
     CP-SCF ITERATION   1:   2.0755e-03 (   0.1 sec   1/  3 done)
     CP-SCF ITERATION   2:   1.3735e-04 (   0.1 sec   3/  3 done)
                    *** THE CP-SCF HAS CONVERGED ***

Forming final perturbed densities           ... done
Transforming perturbed density to AO basis  ... done

 Raw HFC matrix (all values in MHz): 
 -----------------------------------
               -31.8670              -0.6695               1.7992
                -0.6697            -103.5643              -2.9813
                 1.7992              -2.9813             -70.2944

 A(FC)         -68.5886             -68.5886             -68.5886
 A(SD)          36.8022              -1.5297             -35.2726
 A(ORB+DIA)      0.0126              -0.0007               0.0282    A(PC) =   0.0134
 A(ORB)          0.0083               0.0004               0.0271    A(PC) =   0.0119
 A(DIA)          0.0043              -0.0011               0.0012    A(PC) =   0.0014
             ----------           ----------           ----------
 A(Tot)        -31.7738             -70.1189            -103.8329    A(iso)=  -68.5752
 Orientation: 
  X           0.9988063            0.0483337            0.0070629
  Y          -0.0112888            0.0877244            0.9960808
  Z           0.0475247           -0.9949715            0.0881654

Notes:  (1) The A matrix conforms to the "SAI" spin Hamiltonian convention.
        (2) Tensor is right-handed.

 -----------------------------------------------------------
 Nucleus   0C : A:ISTP=   13 I=  0.5 P=134.1903 MHz/au**3
                Q:ISTP=   13 I=  0.5 Q=  0.0000 barn     
 -----------------------------------------------------------
 Solving for nuclear perturbation:
Forming RHS of the CP-SCF equations         ... 
Calc. nucleus orbit integrals (SHARK)       ... done

------------------------------------------------------------------------------
                           ORCA CP-SCF CALCULATION
------------------------------------------------------------------------------

Input orbitals are from        ... /home/rwth0701/scratch/cs681498/orcajob__30556408-Mf7a/12183.gbw
Input Perturbation             ... /home/rwth0701/scratch/cs681498/orcajob__30556408-Mf7a/12183.pin.tmp
Wavefunction output            ... /home/rwth0701/scratch/cs681498/orcajob__30556408-Mf7a/12183.pout.tmp
Perturbation mode              ... Imaginary perturbation
Solver                         ... POPLE
Max. number of iterations      ... 64
Convergence tolerance          ... 1.000e-03
Integral handling              ... Direct
DFT GridXC                     ... 1
COSX GridX                     ... 1
COSX IntAccX                   ... 3.067
COSX Algorithm                 ... Auto
Number of perturbations        ... 3
Number of operators            ... 2
Orbital ranges used for CP-SCF:
 Operator 0:  Orbitals   0...  4  to   5... 72
 Operator 1:  Orbitals   0...  3  to   4... 72
Variables per perturbation     ... 616
DFT calculation                         ... on
XC functional terms                     ... off
Hybrid DFT                              ... on
   Exchange mixing (SCF)                ...  0.200
   Exchange mixing (CP-SCF)             ...  0.200
   GGA exch. scaling(SCF)               ...  0.720
   GGA exch. scaling (CP-SCF)           ...  0.720
   GGA corr. scaling (SCF)              ...  0.810
   GGA corr. scaling (CP-SCF)           ...  0.810

CP-SCF GRID
-----------

General Integration Accuracy     IntAcc      ... 3.467
Radial Grid Type                 RadialGrid  ... OptM3 with GC (2021)
Angular Grid (max. ang.)         AngularGrid ... 1 (Lebedev-50)
Angular grid pruning method      GridPruning ... 4 (adaptive)
Weight generation scheme         WeightScheme... Becke
Basis function cutoff            BFCut       ... 1.0000e-10
Integration weight cutoff        WCut        ... 1.0000e-14
Angular grids for H and He will be reduced by one unit
Partially contracted basis set               ... off
Rotationally invariant grid construction     ... off

Total number of grid points                  ...     2339
Total number of batches                      ...       38
Average number of points per batch           ...       61
Average number of grid points per atom       ...      585

CP-SCF GRIDX
------------

General Integration Accuracy     IntAcc      ... 3.067
Radial Grid Type                 RadialGrid  ... OptM3 with GC (2021)
Angular Grid (max. ang.)         AngularGrid ... 1 (Lebedev-50)
Angular grid pruning method      GridPruning ... 4 (adaptive)
Weight generation scheme         WeightScheme... Becke
Basis function cutoff            BFCut       ... 1.0000e-10
Integration weight cutoff        WCut        ... 1.0000e-14
Angular grids for H and He will be reduced by one unit
Partially contracted basis set               ... on
Rotationally invariant grid construction     ... off

Total number of grid points                  ...     1070
Total number of batches                      ...       20
Average number of points per batch           ...       53
Average number of grid points per atom       ...      268

Memory available               ... 967.6 MB
Memory needed per perturbation ...   0.4 MB
Perturbations treated per batch... 3
Number of batches              ... 1
     CP-SCF ITERATION   0:   1.1187e+00 (   0.1 sec   0/  3 done)
     CP-SCF ITERATION   1:   3.9576e-02 (   0.1 sec   0/  3 done)
     CP-SCF ITERATION   2:   2.9407e-03 (   0.1 sec   1/  3 done)
     CP-SCF ITERATION   3:   1.3119e-04 (   0.1 sec   3/  3 done)
                    *** THE CP-SCF HAS CONVERGED ***

Forming final perturbed densities           ... done
Transforming perturbed density to AO basis  ... done

 Raw HFC matrix (all values in MHz): 
 -----------------------------------
                 7.8718               0.7215              -7.3876
                 0.7215               9.0276             -21.1352
                -7.3876             -21.1352             247.1858

 A(FC)          88.1479              88.1479              88.1479
 A(SD)         -80.8135             -80.3266             161.1401
 A(ORB+DIA)     -0.1781              -0.1675              -0.0130    A(PC) =  -0.1195
 A(ORB)         -0.1785              -0.1679              -0.0129    A(PC) =  -0.1198
 A(DIA)          0.0004               0.0004              -0.0001    A(PC) =   0.0002
             ----------           ----------           ----------
 A(Tot)          7.1563               7.6538             249.2751    A(iso)=   88.0284
 Orientation: 
  X          -0.1433840            0.9891898            0.0307324
  Y           0.9862286            0.1402305            0.0876842
  Z           0.0824267            0.0428817           -0.9956741

Notes:  (1) The A matrix conforms to the "SAI" spin Hamiltonian convention.
        (2) Tensor is right-handed.


--------------------------------------------------------------------------------
----------------------------------------------------------------------------
                           ORCA EULER ANGLE PROGRAM
----------------------------------------------------------------------------

Only g-tensor available        -->  using g-tensor as reference tensor

Reference tensor               ...  g

g-tensor ordering              ...  |g_min> --> |gx>
                                    |g_mid> --> |gy>
                                    |g_max> --> |gz>

A- and EFG-tensor ordering     ...  the axes |Ax>, |Qx>, |Ay>, etc. are assigned
                                    such that the Euler rotation is minimal. You
                                    can find the respective eigenvalues as Ax,
                                    EFGx, Ay, etc. in the tables below.
                                    The relation of |Ax>, |Ay>,  etc. to Amin, Amid, etc.
                                    (as printed in the ORCA EPR/NMR CALCULATION Output)
                                    is obtained in the detailed printout.

Euler rotation around          ...  z - y - z
   First rotation              -->  by alpha around z
   Second rotation             -->  by beta around y'
   Third rotation              -->  by gamma around z''
   Positive / Negative angle   -->  clockwise / counterclockwise rotation

Plot EFG-tensors                    (-)
Plot HFC-tensors                    (-)
Detailed Printout                   (-)

-------------------------------------------------------------------------
          Euler rotation of hyperfine tensor to g-tensor
-------------------------------------------------------------------------

-------------------------------------------------------------------
 Atom  |   Alpha    Beta    Gamma   |   Ax       Ay       Az 
       |          [degrees]         |           [MHz]         
-------------------------------------------------------------------
  1H      -92.0     34.2     90.9     -66.61  -105.16   -28.69
  2H      -93.7      5.7     91.2     -60.64   -23.56  -104.75
  3H       88.0     20.6    -89.1     -70.12  -103.83   -31.77
  0C       90.5     29.3    -91.7     249.28     7.16     7.65
-------------------------------------------------------------------


Maximum memory used throughout the entire EPRNMR-calculation: 67.6 MB

Timings for individual modules:

Sum of individual times         ...       18.746 sec (=   0.312 min)
GTO integral calculation        ...        2.408 sec (=   0.040 min)  12.8 %
Spin-Orbit-Coupling Matrices    ...        2.108 sec (=   0.035 min)  11.2 %
SCF iterations                  ...        7.838 sec (=   0.131 min)  41.8 %
EPR/NMR calculation             ...        6.391 sec (=   0.107 min)  34.1 %
                             ****ORCA TERMINATED NORMALLY****
TOTAL RUN TIME: 0 days 0 hours 0 minutes 21 seconds 28 msec
