4
# ORCA AIMD Position Step 0, t=0.00 fs, E_Pot=-39.82314971 Hartree, Unit is Angstrom
 C     12.6022894301     -0.6266926546     -7.1846322451
 H     12.3092559322     -1.4837953326     -6.4853588307
 H     13.1769622509      0.2068786471     -6.7587485437
 H     12.0584043831     -0.4595369654     -8.0963961825
4
# ORCA AIMD Position Step 1, t=0.50 fs, E_Pot=-39.82207730 Hartree, Unit is Angstrom
 C     12.6041313816     -0.6278719368     -7.1902116181
 H     12.2885920442     -1.4924348487     -6.4904492046
 H     13.1953184831      0.1921275582     -6.7482182069
 H     12.0588700874     -0.4349670782     -8.0962567724
4
# ORCA AIMD Position Step 2, t=1.00 fs, E_Pot=-39.82136834 Hartree, Unit is Angstrom
 C     12.6059275876     -0.6292150612     -7.1953959352
 H     12.2693835518     -1.4973756315     -6.4989294618
 H     13.2129446475      0.1759541914     -6.7384743402
 H     12.0591407619     -0.4107116330     -8.0965854798
4
# ORCA AIMD Position Step 3, t=1.50 fs, E_Pot=-39.82115566 Hartree, Unit is Angstrom
 C     12.6076727077     -0.6307267848     -7.2001655967
 H     12.2517950520     -1.4983822592     -6.5109889289
 H     13.2296773724      0.1582006956     -6.7296736608
 H     12.0592777667     -0.3867893134     -8.0972697953
4
# ORCA AIMD Position Step 4, t=2.00 fs, E_Pot=-39.82145822 Hartree, Unit is Angstrom
 C     12.6093577350     -0.6323987929     -7.2045267922
 H     12.2359168214     -1.4954439724     -6.5266310089
 H     13.2454075254      0.1387992598     -6.7219355744
 H     12.0594058850     -0.3632402700     -8.0981133430
4
# ORCA AIMD Position Step 5, t=2.50 fs, E_Pot=-39.82218412 Hartree, Unit is Angstrom
 C     12.6109713139     -0.6342098958     -7.2085094117
 H     12.2217536795     -1.4887701262     -6.5456817424
 H     13.2600879585      0.1177707340     -6.7153349664
 H     12.0597012636     -0.3401271431     -8.0988591924
4
# ORCA AIMD Position Step 6, t=3.00 fs, E_Pot=-39.82314478 Hartree, Unit is Angstrom
 C     12.6125023269     -0.6361263576     -7.2121640355
 H     12.2092092182     -1.4787908898     -6.5677931539
 H     13.2737432777      0.0952206035     -6.7098980287
 H     12.0603668534     -0.3175265160     -8.0992263897
4
# ORCA AIMD Position Step 7, t=3.50 fs, E_Pot=-39.82408299 Hartree, Unit is Angstrom
 C     12.6139429104     -0.6381000812     -7.2155604469
 H     12.1980656669     -1.4661742441     -6.5924376442
 H     13.2864693436      0.0713292440     -6.7055979422
 H     12.0616172969     -0.2955238515     -8.0989375550
4
# ORCA AIMD Position Step 8, t=4.00 fs, E_Pot=-39.82472393 Hartree, Unit is Angstrom
 C     12.6152919625     -0.6400681204     -7.2187845737
 H     12.1879653557     -1.4518300114     -6.6189125813
 H     13.2984311550      0.0463382788     -6.7023556461
 H     12.0636579048     -0.2742015869     -8.0977500777
4
# ORCA AIMD Position Step 9, t=4.50 fs, E_Pot=-39.82485426 Hartree, Unit is Angstrom
 C     12.6165581812     -0.6419531358     -7.2219347493
 H     12.1783987878     -1.4368988415     -6.6463577879
 H     13.3098555544      0.0205331152     -6.7000430058
 H     12.0666677507     -0.2536271363     -8.0954803336
4
# ORCA AIMD Position Step 10, t=5.00 fs, E_Pot=-39.82441856 Hartree, Unit is Angstrom
 C     12.6177615540     -0.6436667826     -7.2251157289
 H     12.1687134987     -1.4227022939     -6.6738022610
 H     13.3210183008     -0.0057783714     -6.6984899391
 H     12.0707859693     -0.2338408916     -8.0920215204
4
# ORCA AIMD Position Step 11, t=5.50 fs, E_Pot=-39.82359004 Hartree, Unit is Angstrom
 C     12.6189318873     -0.6451179457     -7.2284293389
 H     12.1581602041     -1.4106321977     -6.7002518335
 H     13.3322276127     -0.0322908004     -6.6974967416
 H     12.0760994746     -0.2148435093     -8.0873552801
4
# ORCA AIMD Position Step 12, t=6.00 fs, E_Pot=-39.82274741 Hartree, Unit is Angstrom
 C     12.6201034008     -0.6462253625     -7.2319623471
 H     12.1459903366     -1.4019796008     -6.7248159930
 H     13.3437907607     -0.0587251580     -6.6968480995
 H     12.0826429571     -0.1965924260     -8.0815552389
4
# ORCA AIMD Position Step 13, t=6.50 fs, E_Pot=-39.82231401 Hartree, Unit is Angstrom
 C     12.6213055370     -0.6469351185     -7.2357723076
 H     12.1315966290     -1.3977112310     -6.7468541856
 H     13.3559921631     -0.0848550267     -6.6963352994
 H     12.0903894447     -0.1789905451     -8.0747868312
4
# ORCA AIMD Position Step 14, t=7.00 fs, E_Pot=-39.82252435 Hartree, Unit is Angstrom
 C     12.6225529675     -0.6472354791     -7.2398767814
 H     12.1146634976     -1.3982728441     -6.7660908983
 H     13.3690586900     -0.1105262862     -6.6957780450
 H     12.0992534052     -0.1618863513     -8.0672984561
4
# ORCA AIMD Position Step 15, t=7.50 fs, E_Pot=-39.82328047 Hartree, Unit is Angstrom
 C     12.6238391697     -0.6471636379     -7.2442497991
 H     12.0952679991     -1.4034914244     -6.7826514698
 H     13.3831291778     -0.1356702597     -6.6950467222
 H     12.1090966301     -0.1450781410     -8.0594051318
4
# ORCA AIMD Position Step 16, t=8.00 fs, E_Pot=-39.82421662 Hartree, Unit is Angstrom
 C     12.6251370344     -0.6468009155     -7.2488271669
 H     12.0738871412     -1.4126212587     -6.7970020856
 H     13.3982293196     -0.1603048824     -6.6940788544
 H     12.1197386800     -0.1283240302     -8.0514685074
4
# ORCA AIMD Position Step 17, t=8.50 fs, E_Pot=-39.82491678 Hartree, Unit is Angstrom
 C     12.6264061329     -0.6462567012     -7.2535199618
 H     12.0513009273     -1.4245212649     -6.8098151803
 H     13.4142653572     -0.1845303069     -6.6928913915
 H     12.1309736705     -0.1113604911     -8.0438582428
4
# ORCA AIMD Position Step 18, t=9.00 fs, E_Pot=-39.82511669 Hartree, Unit is Angstrom
 C     12.6276025216     -0.6456504755     -7.2582287177
 H     12.0284564348     -1.4378645313     -6.8218326545
 H     13.4310198239     -0.2085091608     -6.6915809303
 H     12.1425939280     -0.0939269425     -8.0369197120
4
# ORCA AIMD Position Step 19, t=9.50 fs, E_Pot=-39.82478127 Hartree, Unit is Angstrom
 C     12.6286871457     -0.6450947961     -7.2628574663
 H     12.0063224950     -1.4513359356     -6.8337508376
 H     13.4481722159     -0.2324421939     -6.6903131731
 H     12.1544149999     -0.0757953713     -8.0309327074
4
# ORCA AIMD Position Step 20, t=10.00 fs, E_Pot=-39.82406199 Hartree, Unit is Angstrom
 C     12.6296301811     -0.6446839296     -7.2673239200
 H     11.9857837926     -1.4637634517     -6.8461547415
 H     13.4653286687     -0.2565410145     -6.6893040278
 H     12.1663005196     -0.0568018913     -8.0260752492
4
# ORCA AIMD Position Step 21, t=10.50 fs, E_Pot=-39.82320128 Hartree, Unit is Angstrom
 C     12.6304116011     -0.6444878528     -7.2715658359
 H     11.9675789236     -1.4741862146     -6.8594925754
 H     13.4820584417     -0.2810032534     -6.6887958558
 H     12.1781810446     -0.0368751329     -8.0223974006
4
# ORCA AIMD Position Step 22, t=11.00 fs, E_Pot=-39.82244264 Hartree, Unit is Angstrom
 C     12.6310195798     -0.6445503462     -7.2755439390
 H     11.9522736200     -1.4818769986     -6.8740758922
 H     13.4979313550     -0.3059934430     -6.6890329851
 H     12.1900623522     -0.0160557087     -8.0198110505
4
# ORCA AIMD Position Step 23, t=11.50 fs, E_Pot=-39.82197259 Hartree, Unit is Angstrom
 C     12.6314485100     -0.6448896965     -7.2792420400
 H     11.9402547076     -1.4863401190     -6.8900916723
 H     13.5125516044     -0.3316309751     -6.6902397723
 H     12.2020211271      0.0054979330     -8.0180984677
4
# ORCA AIMD Position Step 24, t=12.00 fs, E_Pot=-39.82189446 Hartree, Unit is Angstrom
 C     12.6316977577     -0.6455007725     -7.2826650541
 H     11.9317322460     -1.4873010280     -6.9076176839
 H     13.5255863761     -0.3579861522     -6.6926044037
 H     12.2141888475      0.0275198359     -8.0169366693
4
# ORCA AIMD Position Step 25, t=12.50 fs, E_Pot=-39.82222256 Hartree, Unit is Angstrom
 C     12.6317719311     -0.6463577139     -7.2858358689
 H     11.9267397647     -1.4846987051     -6.9266344844
 H     13.5367842166     -0.3850776373     -6.6962636710
 H     12.2267297616      0.0496584319     -8.0159377193
4
# ORCA AIMD Position Step 26, t=13.00 fs, E_Pot=-39.82288563 Hartree, Unit is Angstrom
 C     12.6316820596     -0.6474164856     -7.2887915672
 H     11.9251306403     -1.4786835404     -6.9470357765
 H     13.5459903044     -0.4128779329     -6.7012963732
 H     12.2398150117      0.0715104308     -8.0146896216
4
# ORCA AIMD Position Step 27, t=13.50 fs, E_Pot=-39.82373558 Hartree, Unit is Angstrom
 C     12.6314478585     -0.6486165278     -7.2915802120
 H     11.9265664090     -1.4696238482     -6.9686339456
 H     13.5531513138     -0.4413189423     -6.7077175689
 H     12.2536023970      0.0926527372     -8.0127944387
4
# ORCA AIMD Position Step 28, t=14.00 fs, E_Pot=-39.82456608 Hartree, Unit is Angstrom
 C     12.6310995732     -0.6498829317     -7.2942566479
 H     11.9305078923     -1.4581109576     -6.9911709353
 H     13.5583248368     -0.4703046423     -6.7154832894
 H     12.2682138061      0.1126863797     -8.0099023847
4
# ORCA AIMD Position Step 29, t=14.50 fs, E_Pot=-39.82515091 Hartree, Unit is Angstrom
 C     12.6306804926     -0.6511267925     -7.2968805573
 H     11.9361966537     -1.4449720046     -7.0143225969
 H     13.5616756675     -0.4997174294     -6.7244860014
 H     12.2837275623      0.1312601096     -8.0057349581
4
# ORCA AIMD Position Step 30, t=15.00 fs, E_Pot=-39.82531183 Hartree, Unit is Angstrom
 C     12.6302473321     -0.6522479296     -7.2995128311
 H     11.9426637657     -1.4312531344     -7.0377183788
 H     13.5634694973     -0.5294301762     -6.7345618501
 H     12.3001714434      0.1480982860     -8.0001011855
4
# ORCA AIMD Position Step 31, t=15.50 fs, E_Pot=-39.82500478 Hartree, Unit is Angstrom
 C     12.6298681574     -0.6531398597     -7.3022116147
 H     11.9487684831     -1.4181693336     -7.0609714518
 H     13.5640603403     -0.5593174800     -6.7454986779
 H     12.3175213688      0.1630212742     -7.9929067219
4
# ORCA AIMD Position Step 32, t=16.00 fs, E_Pot=-39.82438330 Hartree, Unit is Angstrom
 C     12.6296161203     -0.6536992946     -7.3050269768
 H     11.9532901469     -1.4069976405     -7.0837247924
 H     13.5638725293     -0.5892679910     -6.7570497414
 H     12.3357021709      0.1759641054     -7.9841579185
4
# ORCA AIMD Position Step 33, t=16.50 fs, E_Pot=-39.82377594 Hartree, Unit is Angstrom
 C     12.6295591899     -0.6538402284     -7.3079953126
 H     11.9550769992     -1.3989091921     -7.1057043829
 H     13.5633673462     -0.6191916140     -6.7689477018
 H     12.3545945169      0.1869835191     -7.9739617460
4
# ORCA AIMD Position Step 34, t=17.00 fs, E_Pot=-39.82354014 Hartree, Unit is Angstrom
 C     12.6297466623     -0.6535115633     -7.3111335547
 H     11.9532377601     -1.3947613894     -7.1267701477
 H     13.5630060659     -0.6490260585     -6.7809256349
 H     12.3740409243      0.1962665253     -7.9625230484
4
# ORCA AIMD Position Step 35, t=17.50 fs, E_Pot=-39.82385415 Hartree, Unit is Angstrom
 C     12.6301969742     -0.6527127656     -7.3144352856
 H     11.9473211784     -1.3949120355     -7.1469436012
 H     13.5632090090     -0.6787413904     -6.7927447910
 H     12.3938521650      0.2041353534     -7.9501354470
4
# ORCA AIMD Position Step 36, t=18.00 fs, E_Pot=-39.82459685 Hartree, Unit is Angstrom
 C     12.6308928830     -0.6515008953     -7.3178712228
 H     11.9374107642     -1.3991293951     -7.1663931953
 H     13.5643064104     -0.7083346490     -6.8042183616
 H     12.4138188982      0.2110355505     -7.9371662345
4
# ORCA AIMD Position Step 37, t=18.50 fs, E_Pot=-39.82541819 Hartree, Unit is Angstrom
 C     12.6317862059     -0.6499860266     -7.3213935876
 H     11.9240959684     -1.4066380242     -7.1853837427
 H     13.5664980777     -0.7378181314     -6.8152300239
 H     12.4337243522      0.2175152808     -7.9240360988
4
# ORCA AIMD Position Step 38, t=19.00 fs, E_Pot=-39.82594457 Hartree, Unit is Angstrom
 C     12.6328110355     -0.6483137388     -7.3249435220
 H     11.9083299911     -1.4162878953     -7.2042118636
 H     13.5698220850     -0.7672073686     -6.8257548246
 H     12.4533605594      0.2241737466     -7.9111742044
4
# ORCA AIMD Position Step 39, t=19.50 fs, E_Pot=-39.82596323 Hartree, Unit is Angstrom
 C     12.6338980949     -0.6466455133     -7.3284592640
 H     11.8912486179     -1.4267545163     -7.2231485861
 H     13.5741486826     -0.7964995779     -6.8358542723
 H     12.4725448896      0.2316063324     -7.8989830666
4
# ORCA AIMD Position Step 40, t=20.00 fs, E_Pot=-39.82548344 Hartree, Unit is Angstrom
 C     12.6349867788     -0.6451370028     -7.3318842280
 H     11.8739952071     -1.4367310434     -7.2424046580
 H     13.5791968029     -0.8256602642     -6.8456676450
 H     12.4911354622      0.2403247875     -7.8877858364
4
# ORCA AIMD Position Step 41, t=20.50 fs, E_Pot=-39.82467970 Hartree, Unit is Angstrom
 C     12.6360314053     -0.6439212535     -7.3351735813
 H     11.8575992987     -1.4450573838     -7.2621184709
 H     13.5845709447     -0.8546141751     -6.8553904248
 H     12.5090415371      0.2506778534     -7.8777818269
4
# ORCA AIMD Position Step 42, t=21.00 fs, E_Pot=-39.82378659 Hartree, Unit is Angstrom
 C     12.6370025230     -0.6430976656     -7.3382986630
 H     11.8429100740     -1.4507882841     -7.2823596161
 H     13.5898101098     -0.8832443207     -6.8652472897
 H     12.5262257553      0.2627872198     -7.8690175253
4
# ORCA AIMD Position Step 43, t=21.50 fs, E_Pot=-39.82301016 Hartree, Unit is Angstrom
 C     12.6378853144     -0.6427268749     -7.3412487310
 H     11.8305707514     -1.4532164870     -7.3031402787
 H     13.5944392422     -0.9113986061     -6.8754648708
 H     12.5426973674      0.2765164742     -7.8613817611
4
# ORCA AIMD Position Step 44, t=22.00 fs, E_Pot=-39.82248456 Hartree, Unit is Angstrom
 C     12.6386770706     -0.6428308769     -7.3440299979
 H     11.8210159943     -1.4518705546     -7.3244290845
 H     13.5980153474     -0.9389019483     -6.8862483319
 H     12.5584986491      0.2914824595     -7.8546268021
4
# ORCA AIMD Position Step 45, t=22.50 fs, E_Pot=-39.82226839 Hartree, Unit is Angstrom
 C     12.6393849646     -0.6433970378     -7.3466625179
 H     11.8144778564     -1.4465027843     -7.3461647540
 H     13.6001638912     -0.9655712617     -6.8977638507
 H     12.5736888008      0.3071057806     -7.8484092370
4
# ORCA AIMD Position Step 46, t=23.00 fs, E_Pot=-39.82235836 Hartree, Unit is Angstrom
 C     12.6400246153     -0.6443841168     -7.3491758193
 H     11.8109912801     -1.4370769886     -7.3682696697
 H     13.6006045687     -0.9912318397     -6.9101288801
 H     12.5883294026      0.3226864546     -7.8423380496
4
# ORCA AIMD Position Step 47, t=23.50 fs, E_Pot=-39.82270173 Hartree, Unit is Angstrom
 C     12.6406195203     -0.6457289052     -7.3516045435
 H     11.8103940636     -1.4237593233     -7.3906607268
 H     13.5991665507     -1.0157304864     -6.9234027392
 H     12.6024755099      0.3374866456     -7.8360249803
4
# ORCA AIMD Position Step 48, t=24.00 fs, E_Pot=-39.82320263 Hartree, Unit is Angstrom
 C     12.6412010443     -0.6473518815     -7.3539842351
 H     11.8123232637     -1.4069126383     -7.4132632908
 H     13.5957964003     -1.0389496845     -6.9375871998
 H     12.6161710613      0.3508062993     -7.8291200026
4
# ORCA AIMD Position Step 49, t=24.50 fs, E_Pot=-39.82373069 Hartree, Unit is Angstrom
 C     12.6418091711     -0.6491609677     -7.3563483833
 H     11.8162049647     -1.3870943934     -7.4360233018
 H     13.5905582677     -1.0608182224     -6.9526244069
 H     12.6294496390      0.3620362192     -7.8213364429
4
# ORCA AIMD Position Step 50, t=25.00 fs, E_Pot=-39.82414454 Hartree, Unit is Angstrom
 C     12.6424914905     -0.6510570782     -7.3587248337
 H     11.8212663469     -1.3650337219     -7.4589257767
 H     13.5836312572     -1.0813213782     -6.9684088585
 H     12.6423369745      0.3707113730     -7.8124631963
4
# ORCA AIMD Position Step 51, t=25.50 fs, E_Pot=-39.82433544 Hartree, Unit is Angstrom
 C     12.6433026588     -0.6529368585     -7.3611344515
 H     11.8265430362     -1.3416117272     -7.4820052547
 H     13.5753028024     -1.1005092181     -6.9847860109
 H     12.6548567474      0.3765321483     -7.8023716171
4
# ORCA AIMD Position Step 52, t=26.00 fs, E_Pot=-39.82428150 Hartree, Unit is Angstrom
 C     12.6443001613     -0.6546996210     -7.3635895674
 H     11.8309397208     -1.3177952364     -7.5053540407
 H     13.5659532794     -1.1184995770     -7.0015635956
 H     12.6670362016      0.3793837642     -7.7910145126
4
# ORCA AIMD Position Step 53, t=26.50 fs, E_Pot=-39.82407837 Hartree, Unit is Angstrom
 C     12.6455368024     -0.6562565512     -7.3660936706
 H     11.8333346344     -1.2945403676     -7.5291176694
 H     13.5560361684     -1.1354780229     -7.0185244171
 H     12.6789115943      0.3793494765     -7.7784216406
4
# ORCA AIMD Position Step 54, t=27.00 fs, E_Pot=-39.82390875 Hartree, Unit is Angstrom
 C     12.6470503491     -0.6575418579     -7.3686431235
 H     11.8327286770     -1.2726690971     -7.5534673920
 H     13.5460471398     -1.1516890227     -7.0354378703
 H     12.6905340422      0.3767110737     -7.7646954275
4
# ORCA AIMD Position Step 55, t=27.50 fs, E_Pot=-39.82394215 Hartree, Unit is Angstrom
 C     12.6488515993     -0.6585246928     -7.3712302210
 H     11.8284206941     -1.2527434663     -7.5785538059
 H     13.5364871951     -1.1674207059     -7.0520770509
 H     12.7019738334      0.3719498174     -7.7500038924
4
# ORCA AIMD Position Step 56, t=28.00 fs, E_Pot=-39.82422030 Hartree, Unit is Angstrom
 C     12.6509153309     -0.6592175211     -7.3738471233
 H     11.8201570421     -1.2349802410     -7.6044522918
 H     13.5278196310     -1.1829819987     -7.0682401423
 H     12.7133219877      0.3657380515     -7.7345669639
4
# ORCA AIMD Position Step 57, t=28.50 fs, E_Pot=-39.82461773 Hartree, Unit is Angstrom
 C     12.6531789548     -0.6596772318     -7.3764898788
 H     11.8081958276     -1.2192396505     -7.6311135440
 H     13.5204215016     -1.1986699439     -7.0837670943
 H     12.7246905019      0.3589087672     -7.7186412458
4
# ORCA AIMD Position Step 58, t=29.00 fs, E_Pot=-39.82491721 Hartree, Unit is Angstrom
 C     12.6555502191     -0.6599979224     -7.3791607691
 H     11.7932619289     -1.2050933836     -7.6583439449
 H     13.5145396661     -1.2147337439     -7.0985542392
 H     12.7362090437      0.3524021373     -7.7024969752
4
# ORCA AIMD Position Step 59, t=29.50 fs, E_Pot=-39.82494458 Hartree, Unit is Angstrom
 C     12.6579213297     -0.6602974906     -7.3818688271
 H     11.7764139617     -1.1919398610     -7.6858188271
 H     13.5102607617     -1.2313411722     -7.1125605557
 H     12.7480192075      0.3471879231     -7.6863922859
4
# ORCA AIMD Position Step 60, t=30.00 fs, E_Pot=-39.82466214 Hartree, Unit is Angstrom
 C     12.6601864510     -0.6606982437     -7.3846289637
 H     11.7588629782     -1.1791355104     -7.7131320930
 H     13.5074975842     -1.2485543705     -7.1258117489
 H     12.7602603571      0.3441418265     -7.6705299539
4
# ORCA AIMD Position Step 61, t=30.50 fs, E_Pot=-39.82416698 Hartree, Unit is Angstrom
 C     12.6622542376     -0.6613107464     -7.3874612200
 H     11.7418223281     -1.1660833339     -7.7398401624
 H     13.5060015113     -1.2663185570     -7.1383878969
 H     12.7730576816      0.3439303037     -7.6550348311
4
# ORCA AIMD Position Step 62, t=31.00 fs, E_Pot=-39.82361565 Hartree, Unit is Angstrom
 C     12.6640566963     -0.6622181758     -7.3903896483
 H     11.7263870229     -1.1522949531     -7.7655120837
 H     13.5053959371     -1.2844708035     -7.1504096791
 H     12.7865037707      0.3468946607     -7.6399309725
4
# ORCA AIMD Position Step 63, t=31.50 fs, E_Pot=-39.82313863 Hartree, Unit is Angstrom
 C     12.6655523541     -0.6634667997     -7.3934410035
 H     11.7134656538     -1.1374145479     -7.7897637439
 H     13.5052228139     -1.3027623825     -7.1620201957
 H     12.8006425721      0.3529834490     -7.6251412802
4
# ORCA AIMD Position Step 64, t=32.00 fs, E_Pot=-39.82279762 Hartree, Unit is Angstrom
 C     12.6667255962     -0.6650631453     -7.3966426838
 H     11.7037501214     -1.1212206411     -7.8122811039
 H     13.5049926273     -1.3208900414     -7.1733685003
 H     12.8154578303      0.3617514610     -7.6105052200
4
# ORCA AIMD Position Step 65, t=32.50 fs, E_Pot=-39.82259607 Hartree, Unit is Angstrom
 C     12.6675834227     -0.6669778314     -7.4000201069
 H     11.6977078394     -1.1036146398     -7.8328287164
 H     13.5042311458     -1.3385301983     -7.1845923711
 H     12.8308729595      0.3724279308     -7.5958186812
4
# ORCA AIMD Position Step 66, t=33.00 fs, E_Pot=-39.82251445 Hartree, Unit is Angstrom
 C     12.6681517737     -0.6691533706     -7.4035936695
 H     11.6955818848     -1.0846076520     -7.8512580173
 H     13.5025161352     -1.3553709533     -7.1958078416
 H     12.8467580940      0.3840281784     -7.5808722658
4
# ORCA AIMD Position Step 67, t=33.50 fs, E_Pot=-39.82253667 Hartree, Unit is Angstrom
 C     12.6684718834     -0.6715140036     -7.4073759864
 H     11.6973956970     -1.0643065727     -7.8675167215
 H     13.4995032471     -1.3711384627     -7.2071047578
 H     12.8629430609      0.3954831129     -7.5654791283
4
# ORCA AIMD Position Step 68, t=34.00 fs, E_Pot=-39.82265177 Hartree, Unit is Angstrom
 C     12.6685973881     -0.6739745690     -7.4113698297
 H     11.7029523911     -1.0429015431     -7.8816548437
 H     13.4949429119     -1.3856179762     -7.2185425120
 H     12.8792356970      0.4057532654     -7.5494977072
4
# ORCA AIMD Position Step 69, t=34.50 fs, E_Pot=-39.82283817 Hartree, Unit is Angstrom
 C     12.6685923625     -0.6764473837     -7.4155667500
 H     11.7118319657     -1.0206544572     -7.8938334970
 H     13.4886892132     -1.3986692893     -7.2301494146
 H     12.8954392004      0.4139146383     -7.5328399448
4
# ORCA AIMD Position Step 70, t=35.00 fs, E_Pot=-39.82304992 Hartree, Unit is Angstrom
 C     12.6685304381     -0.6788464559     -7.4199462829
 H     11.7233866593     -0.9978876589     -7.9043332943
 H     13.4807006066     -1.4102363864     -7.2419238014
 H     12.9113664475      0.4192073074     -7.5154712615
4
# ORCA AIMD Position Step 71, t=35.50 fs, E_Pot=-39.82321992 Hartree, Unit is Angstrom
 C     12.6684920863     -0.6810919360     -7.4244762544
 H     11.7367566574     -0.9749648887     -7.9135585281
 H     13.4710427775     -1.4203564683     -7.2538373021
 H     12.9268536083      0.4210787217     -7.4973995120
4
# ORCA AIMD Position Step 72, t=36.00 fs, E_Pot=-39.82328840 Hartree, Unit is Angstrom
 C     12.6685631923     -0.6831114235     -7.4291134690
 H     11.7508859331     -0.9522728292     -7.9220327355
 H     13.4598811749     -1.4291637043     -7.2658373160
 H     12.9417685682      0.4191849750     -7.4786687410
4
# ORCA AIMD Position Step 73, t=36.50 fs, E_Pot=-39.82324496 Hartree, Unit is Angstrom
 C     12.6688294984     -0.6848433841     -7.4338065713
 H     11.7645891995     -0.9301886048     -7.9303723694
 H     13.4474717249     -1.4368882564     -7.2778523842
 H     12.9560193248      0.4133984407     -7.4593459809
4
# ORCA AIMD Position Step 74, t=37.00 fs, E_Pot=-39.82315725 Hartree, Unit is Angstrom
 C     12.6693683834     -0.6862408008     -7.4385008900
 H     11.7766571829     -0.9090420876     -7.9392348590
 H     13.4341462189     -1.4438505649     -7.2897979969
 H     12.9695612510      0.4038080989     -7.4395096032
4
# ORCA AIMD Position Step 75, t=37.50 fs, E_Pot=-39.82315418 Hartree, Unit is Angstrom
 C     12.6702376081     -0.6872755913     -7.4431456303
 H     11.7860051337     -0.8890762874     -7.9492398029
 H     13.4202917401     -1.4504486119     -7.3015840498
 H     12.9824033529      0.3907198085     -7.4192349884
4
# ORCA AIMD Position Step 76, t=38.00 fs, E_Pot=-39.82335544 Hartree, Unit is Angstrom
 C     12.6714636719     -0.6879427466     -7.4477022642
 H     11.7918348370     -0.8704166790     -7.9608688559
 H     13.4063202473     -1.4571337836     -7.3131220604
 H     12.9946155673      0.3746506238     -7.3985875307
4
# ORCA AIMD Position Step 77, t=38.50 fs, E_Pot=-39.82378325 Hartree, Unit is Angstrom
 C     12.6730326521     -0.6882635921     -7.4521524410
 H     11.7937752768     -0.8530584665     -7.9743748067
 H     13.3926325403     -1.4643768976     -7.3243339528
 H     13.0063334695      0.3563206861     -7.3776106007
4
# ORCA AIMD Position Step 78, t=39.00 fs, E_Pot=-39.82432624 Hartree, Unit is Angstrom
 C     12.6748883263     -0.6882863861     -7.4565026306
 H     11.7919489226     -0.8368787208     -7.9897329979
 H     13.3795772298     -1.4726242533     -7.3351615835
 H     13.0177555294      0.3366282974     -7.3563093152
4
# ORCA AIMD Position Step 79, t=39.50 fs, E_Pot=-39.82479469 Hartree, Unit is Angstrom
 C     12.6769393412     -0.6880836938     -7.4607837454
 H     11.7869365641     -0.8216692151     -8.0066451104
 H     13.3674090340     -1.4822462251     -7.3455734900
 H     13.0291346278      0.3165999726     -7.3346445037
4
# ORCA AIMD Position Step 80, t=40.00 fs, E_Pot=-39.82503254 Hartree, Unit is Angstrom
 C     12.6790738241     -0.6877460372     -7.4650459258
 H     11.7796579011     -0.8071781762     -8.0245986562
 H     13.3562560656     -1.4934881646     -7.3555690491
 H     13.0407560378      0.2973075454     -7.3125311296
4
# ORCA AIMD Position Step 81, t=40.50 fs, E_Pot=-39.82500481 Hartree, Unit is Angstrom
 C     12.6811765838     -0.6873724381     -7.4693503812
 H     11.7712149382     -0.7931479159     -8.0429522395
 H     13.3461049228     -1.5064338948     -7.3651778462
 H     13.0529038920      0.2797568809     -7.2898508454
4
# ORCA AIMD Position Step 82, t=41.00 fs, E_Pot=-39.82479980 Hartree, Unit is Angstrom
 C     12.6831476410     -0.6870567711     -7.4737592273
 H     11.7627283696     -0.7793437594     -8.0610387421
 H     13.3368025782     -1.5209885066     -7.3744567080
 H     13.0658019767      0.2647372542     -7.2664728909
4
# ORCA AIMD Position Step 83, t=41.50 fs, E_Pot=-39.82455554 Hartree, Unit is Angstrom
 C     12.6849129368     -0.6868761414     -7.4783272406
 H     11.7552314123     -0.7655674648     -8.0782266088
 H     13.3280821978     -1.5368861993     -7.3834808098
 H     13.0795664174      0.2527043270     -7.2423001344
4
# ORCA AIMD Position Step 84, t=42.00 fs, E_Pot=-39.82436975 Hartree, Unit is Angstrom
 C     12.6864316330     -0.6868807847     -7.4830943729
 H     11.7495901169     -0.7516631856     -8.0939746410
 H     13.3196021114     -1.5537227657     -7.3923344391
 H     13.0941593954      0.2436982892     -7.2173129627
4
# ORCA AIMD Position Step 85, t=42.50 fs, E_Pot=-39.82425653 Hartree, Unit is Angstrom
 C     12.6876969473     -0.6870902531     -7.4880811620
 H     11.7464656564     -0.7375161787     -8.1078595487
 H     13.3109899086     -1.5710021020     -7.4011015414
 H     13.1093728342      0.2373434519     -7.1916060668
4
# ORCA AIMD Position Step 86, t=43.00 fs, E_Pot=-39.82416777 Hartree, Unit is Angstrom
 C     12.6887324530     -0.6874960969     -7.4932872590
 H     11.7463017435     -0.7230474631     -8.1195896917
 H     13.3018829665     -1.5881876959     -7.4098578920
 H     13.1248445484      0.2329259078     -7.1654001152
4
# ORCA AIMD Position Step 87, t=43.50 fs, E_Pot=-39.82404778 Hartree, Unit is Angstrom
 C     12.6895853657     -0.6880692965     -7.4986923648
 H     11.7493225502     -0.7082070522     -8.1290074026
 H     13.2919618145     -1.6047519762     -7.4186655773
 H     13.1401069419      0.2295240915     -7.1390336552
4
# ORCA AIMD Position Step 88, t=44.00 fs, E_Pot=-39.82387497 Hartree, Unit is Angstrom
 C     12.6903196046     -0.6887691813     -7.5042590106
 H     11.7555349645     -0.6929658513     -8.1360920398
 H     13.2809723793     -1.6202176339     -7.4275703529
 H     13.1546451722      0.2261478681     -7.1129292711
4
# ORCA AIMD Position Step 89, t=44.50 fs, E_Pot=-39.82366867 Hartree, Unit is Angstrom
 C     12.6910093907     -0.6895516600     -7.5099366701
 H     11.7647377154     -0.6773058170     -8.1409609773
 H     13.2687380391     -1.6341887322     -7.4366004580
 H     13.1679522537      0.2218577695     -7.0875444312
4
# ORCA AIMD Position Step 90, t=45.00 fs, E_Pot=-39.82346909 Hartree, Unit is Angstrom
 C     12.6917344923     -0.6903749210     -7.5156651238
 H     11.7765264887     -0.6612105069     -8.1438690013
 H     13.2551650523     -1.6463739256     -7.4457675358
 H     13.1795751666      0.2158469289     -7.0633307610
4
# ORCA AIMD Position Step 91, t=45.50 fs, E_Pot=-39.82331315 Hartree, Unit is Angstrom
 C     12.6925767117     -0.6912027852     -7.5213776615
 H     11.7903061499     -0.6446548763     -8.1452042744
 H     13.2402419213     -1.6566018859     -7.4550685346
 H     13.1891450913      0.2074866672     -7.0406979113
4
# ORCA AIMD Position Step 92, t=46.00 fs, E_Pot=-39.82322532 Hartree, Unit is Angstrom
 C     12.6936174700     -0.6920058801     -7.5270034124
 H     11.8053080609     -0.6275960913     -8.1454791837
 H     13.2240346053     -1.6648310087     -7.4644894501
 H     13.1963936010      0.1963413592     -7.0199912802
4
# ORCA AIMD Position Step 93, t=46.50 fs, E_Pot=-39.82322503 Hartree, Unit is Angstrom
 C     12.6949325702     -0.6927628451     -7.5324726867
 H     11.8206489485     -0.6099645030     -8.1452965978
 H     13.2066788805     -1.6711528380     -7.4740063886
 H     13.2011638643      0.1821774454     -7.0014612081
4
# ORCA AIMD Position Step 94, t=47.00 fs, E_Pot=-39.82334118 Hartree, Unit is Angstrom
 C     12.6965879418     -0.6934595100     -7.5377204656
 H     11.8353856143     -0.5916624366     -8.1453120558