Job execution start: Tue Oct 25 01:42:58 CEST 2022
Shared library path: /home/cs681498/orca:/opt/MPI/openmpi-4.1.1/linux/gcc_4.8.5/lib:/opt/MPI/openmpi-4.1.1/linux/gcc_4.8.5/lib/lib32
Slurm Job ID is: 30556596
Slurm Job name is: 19485
ncm0286

                                 *****************
                                 * O   R   C   A *
                                 *****************

                                            #,                                       
                                            ###                                      
                                            ####                                     
                                            #####                                    
                                            ######                                   
                                           ########,                                 
                                     ,,################,,,,,                         
                               ,,#################################,,                 
                          ,,##########################################,,             
                       ,#########################################, ''#####,          
                    ,#############################################,,   '####,        
                  ,##################################################,,,,####,       
                ,###########''''           ''''###############################       
              ,#####''   ,,,,##########,,,,          '''####'''          '####       
            ,##' ,,,,###########################,,,                        '##       
           ' ,,###''''                  '''############,,,                           
         ,,##''                                '''############,,,,        ,,,,,,###''
      ,#''                                            '''#######################'''  
     '                                                          ''''####''''         
             ,#######,   #######,   ,#######,      ##                                
            ,#'     '#,  ##    ##  ,#'     '#,    #''#        ######   ,####,        
            ##       ##  ##   ,#'  ##            #'  '#       #        #'  '#        
            ##       ##  #######   ##           ,######,      #####,   #    #        
            '#,     ,#'  ##    ##  '#,     ,#' ,#      #,         ##   #,  ,#        
             '#######'   ##     ##  '#######'  #'      '#     #####' # '####'        



                  #######################################################
                  #                        -***-                        #
                  #          Department of theory and spectroscopy      #
                  #    Directorship and core code : Frank Neese         #
                  #        Max Planck Institute fuer Kohlenforschung    #
                  #                Kaiser Wilhelm Platz 1               #
                  #                 D-45470 Muelheim/Ruhr               #
                  #                      Germany                        #
                  #                                                     #
                  #                  All rights reserved                #
                  #                        -***-                        #
                  #######################################################


                         Program Version 5.0.3 -  RELEASE  -


 With contributions from (in alphabetic order):
   Daniel Aravena         : Magnetic Suceptibility
   Michael Atanasov       : Ab Initio Ligand Field Theory (pilot matlab implementation)
   Alexander A. Auer      : GIAO ZORA, VPT2 properties, NMR spectrum
   Ute Becker             : Parallelization
   Giovanni Bistoni       : ED, misc. LED, open-shell LED, HFLD
   Martin Brehm           : Molecular dynamics
   Dmytro Bykov           : SCF Hessian
   Vijay G. Chilkuri      : MRCI spin determinant printing, contributions to CSF-ICE
   Dipayan Datta          : RHF DLPNO-CCSD density
   Achintya Kumar Dutta   : EOM-CC, STEOM-CC
   Dmitry Ganyushin       : Spin-Orbit,Spin-Spin,Magnetic field MRCI
   Miquel Garcia          : C-PCM and meta-GGA Hessian, CC/C-PCM, Gaussian charge scheme
   Yang Guo               : DLPNO-NEVPT2, F12-NEVPT2, CIM, IAO-localization
   Andreas Hansen         : Spin unrestricted coupled pair/coupled cluster methods
   Benjamin Helmich-Paris : MC-RPA, TRAH-SCF, COSX integrals
   Lee Huntington         : MR-EOM, pCC
   Robert Izsak           : Overlap fitted RIJCOSX, COSX-SCS-MP3, EOM
   Marcus Kettner         : VPT2
   Christian Kollmar      : KDIIS, OOCD, Brueckner-CCSD(T), CCSD density, CASPT2, CASPT2-K
   Simone Kossmann        : Meta GGA functionals, TD-DFT gradient, OOMP2, MP2 Hessian
   Martin Krupicka        : Initial AUTO-CI
   Lucas Lang             : DCDCAS
   Marvin Lechner         : AUTO-CI (C++ implementation), FIC-MRCC
   Dagmar Lenk            : GEPOL surface, SMD
   Dimitrios Liakos       : Extrapolation schemes; Compound Job, initial MDCI parallelization
   Dimitrios Manganas     : Further ROCIS development; embedding schemes
   Dimitrios Pantazis     : SARC Basis sets
   Anastasios Papadopoulos: AUTO-CI, single reference methods and gradients
   Taras Petrenko         : DFT Hessian,TD-DFT gradient, ASA, ECA, R-Raman, ABS, FL, XAS/XES, NRVS
   Peter Pinski           : DLPNO-MP2, DLPNO-MP2 Gradient
   Christoph Reimann      : Effective Core Potentials
   Marius Retegan         : Local ZFS, SOC
   Christoph Riplinger    : Optimizer, TS searches, QM/MM, DLPNO-CCSD(T), (RO)-DLPNO pert. Triples
   Tobias Risthaus        : Range-separated hybrids, TD-DFT gradient, RPA, STAB
   Michael Roemelt        : Original ROCIS implementation
   Masaaki Saitow         : Open-shell DLPNO-CCSD energy and density
   Barbara Sandhoefer     : DKH picture change effects
   Avijit Sen             : IP-ROCIS
   Kantharuban Sivalingam : CASSCF convergence, NEVPT2, FIC-MRCI
   Bernardo de Souza      : ESD, SOC TD-DFT
   Georgi Stoychev        : AutoAux, RI-MP2 NMR, DLPNO-MP2 response
   Willem Van den Heuvel  : Paramagnetic NMR
   Boris Wezisla          : Elementary symmetry handling
   Frank Wennmohs         : Technical directorship


 We gratefully acknowledge several colleagues who have allowed us to
 interface, adapt or use parts of their codes:
   Stefan Grimme, W. Hujo, H. Kruse, P. Pracht,  : VdW corrections, initial TS optimization,
                  C. Bannwarth, S. Ehlert          DFT functionals, gCP, sTDA/sTD-DF
   Ed Valeev, F. Pavosevic, A. Kumar             : LibInt (2-el integral package), F12 methods
   Garnet Chan, S. Sharma, J. Yang, R. Olivares  : DMRG
   Ulf Ekstrom                                   : XCFun DFT Library
   Mihaly Kallay                                 : mrcc  (arbitrary order and MRCC methods)
   Jiri Pittner, Ondrej Demel                    : Mk-CCSD
   Frank Weinhold                                : gennbo (NPA and NBO analysis)
   Christopher J. Cramer and Donald G. Truhlar   : smd solvation model
   Lars Goerigk                                  : TD-DFT with DH, B97 family of functionals
   V. Asgeirsson, H. Jonsson                     : NEB implementation
   FAccTs GmbH                                   : IRC, NEB, NEB-TS, DLPNO-Multilevel, CI-OPT
                                                   MM, QMMM, 2- and 3-layer-ONIOM, Crystal-QMMM,
                                                   LR-CPCM, SF, NACMEs, symmetry and pop. for TD-DFT,
                                                   nearIR, NL-DFT gradient (VV10), updates on ESD,
                                                   ML-optimized integration grids
   S Lehtola, MJT Oliveira, MAL Marques          : LibXC Library
   Liviu Ungur et al                             : ANISO software


 Your calculation uses the libint2 library for the computation of 2-el integrals
 For citations please refer to: http://libint.valeyev.net

 Your ORCA version has been built with support for libXC version: 5.1.0
 For citations please refer to: https://tddft.org/programs/libxc/

 This ORCA versions uses:
   CBLAS   interface :  Fast vector & matrix operations
   LAPACKE interface :  Fast linear algebra routines
   SCALAPACK package :  Parallel linear algebra routines
   Shared memory     :  Shared parallel matrices
   BLAS/LAPACK       :  OpenBLAS 0.3.15  USE64BITINT DYNAMIC_ARCH NO_AFFINITY SkylakeX SINGLE_THREADED
        Core in use  :  SkylakeX
   Copyright (c) 2011-2014, The OpenBLAS Project


================================================================================

----- Orbital basis set information -----
Your calculation utilizes the basis: EPR-III
   V. Barone, in Recent Advances in Density Functional Methods, Part 1 (ed. D. P. Chong), World Scientific, Singapore, 1995, p. 287.
   N. Rega, M. Cossi and V. Barone, J. Chem. Phys. 105, 11060 (1996).

----- AuxJ basis set information -----
Your calculation utilizes the AutoAux generation procedure.
  G. L. Stoychev, A. A. Auer, F. Neese, J. Chem. Theory Comput. 13, 554 (2017)

----- AuxC basis set information -----
Your calculation utilizes the AutoAux generation procedure.
  G. L. Stoychev, A. A. Auer, F. Neese, J. Chem. Theory Comput. 13, 554 (2017)

----- AuxJK basis set information -----
Your calculation utilizes the AutoAux generation procedure.
  G. L. Stoychev, A. A. Auer, F. Neese, J. Chem. Theory Comput. 13, 554 (2017)

================================================================================
                                        WARNINGS
                       Please study these warnings very carefully!
================================================================================


WARNING: your system is open-shell and RHF/RKS was chosen
  ===> : WILL SWITCH to UHF/UKS


INFO   : the flag for use of the SHARK integral package has been found!

================================================================================
                                       INPUT FILE
================================================================================
NAME = /home/rwth0701/scratch/cs681498/orcajob__30556596-jyVH/19485.inp
|  1> !B3LYP EPR-III Autoaux
|  2> !PAL4
|  3> 
|  4> * xyz 0 2
|  5>  C    -92.2248761649   -121.5516058282    -33.0893197469
|  6>  H    -91.9994902361   -122.6342002143    -33.1731173059
|  7>  H    -91.4376800659   -120.8076256502    -32.9923660050
|  8>  H    -93.2403825195   -121.3339720278    -33.1327992691
|  9> *
| 10> 
| 11> %EPRNMR
| 12>         GTENSOR   TRUE
| 13>         NUCLEI    = ALL H {AISO, ADIP, AORB}
| 14>         NUCLEI    = ALL C {AISO, ADIP, AORB}
| 15> END
| 16> 
| 17> 
| 18>                          ****END OF INPUT****
================================================================================

                       ****************************
                       * Single Point Calculation *
                       ****************************

---------------------------------
CARTESIAN COORDINATES (ANGSTROEM)
---------------------------------
  C    -92.224876  -121.551606  -33.089320
  H    -91.999490  -122.634200  -33.173117
  H    -91.437680  -120.807626  -32.992366
  H    -93.240383  -121.333972  -33.132799

----------------------------
CARTESIAN COORDINATES (A.U.)
----------------------------
  NO LB      ZA    FRAG     MASS         X           Y           Z
   0 C     6.0000    0    12.011  -174.279759  -229.699246  -62.529752
   1 H     1.0000    0     1.008  -173.853841  -231.745053  -62.688107
   2 H     1.0000    0     1.008  -172.792174  -228.293327  -62.346536
   3 H     1.0000    0     1.008  -176.198788  -229.287978  -62.611917

--------------------------------
INTERNAL COORDINATES (ANGSTROEM)
--------------------------------
 C      0   0   0     0.000000000000     0.00000000     0.00000000
 H      1   0   0     1.108977661006     0.00000000     0.00000000
 H      1   2   0     1.087466887591   121.83544966     0.00000000
 H      1   2   3     1.039474913675   113.56433474   178.81561261

---------------------------
INTERNAL COORDINATES (A.U.)
---------------------------
 C      0   0   0     0.000000000000     0.00000000     0.00000000
 H      1   0   0     2.095664067938     0.00000000     0.00000000
 H      1   2   0     2.055014597254   121.83544966     0.00000000
 H      1   2   3     1.964322909928   113.56433474   178.81561261

---------------------
BASIS SET INFORMATION
---------------------
There are 2 groups of distinct atoms

 Group   1 Type C   : 12s8p2d1f contracted to 8s5p2d1f pattern {51111111/41111/11/1}
 Group   2 Type H   : 7s2p contracted to 5s2p pattern {31111/11}

Atom   0C    basis set group =>   1
Atom   1H    basis set group =>   2
Atom   2H    basis set group =>   2
Atom   3H    basis set group =>   2
---------------------------------
AUXILIARY/J BASIS SET INFORMATION
---------------------------------
There are 2 groups of distinct atoms

 Group   1 Type C   : 20s17p16d8f3g contracted to 20s17p16d8f3g pattern {11111111111111111111/11111111111111111/1111111111111111/11111111/111}
 Group   2 Type H   : 17s7p3d contracted to 17s7p3d pattern {11111111111111111/1111111/111}

Atom   0C    basis set group =>   1
Atom   1H    basis set group =>   2
Atom   2H    basis set group =>   2
Atom   3H    basis set group =>   2
---------------------------------
AUXILIARY/C BASIS SET INFORMATION
---------------------------------
There are 2 groups of distinct atoms

 Group   1 Type C   : 20s17p16d8f3g contracted to 20s17p16d8f3g pattern {11111111111111111111/11111111111111111/1111111111111111/11111111/111}
 Group   2 Type H   : 17s7p3d contracted to 17s7p3d pattern {11111111111111111/1111111/111}

Atom   0C    basis set group =>   1
Atom   1H    basis set group =>   2
Atom   2H    basis set group =>   2
Atom   3H    basis set group =>   2
----------------------------------
AUXILIARY/JK BASIS SET INFORMATION
----------------------------------
There are 2 groups of distinct atoms

 Group   1 Type C   : 20s17p16d8f3g contracted to 20s17p16d8f3g pattern {11111111111111111111/11111111111111111/1111111111111111/11111111/111}
 Group   2 Type H   : 17s7p3d contracted to 17s7p3d pattern {11111111111111111/1111111/111}

Atom   0C    basis set group =>   1
Atom   1H    basis set group =>   2
Atom   2H    basis set group =>   2
Atom   3H    basis set group =>   2


           ************************************************************
           *        Program running with 4 parallel MPI-processes     *
           *              working on a common directory               *
           ************************************************************
------------------------------------------------------------------------------
                           ORCA GTO INTEGRAL CALCULATION
                           -- RI-GTO INTEGRALS CHOSEN --
------------------------------------------------------------------------------
------------------------------------------------------------------------------
                   ___                                                        
                  /   \      - P O W E R E D   B Y -                         
                 /     \                                                     
                 |  |  |   _    _      __       _____    __    __             
                 |  |  |  | |  | |    /  \     |  _  \  |  |  /  |          
                  \  \/   | |  | |   /    \    | | | |  |  | /  /          
                 / \  \   | |__| |  /  /\  \   | |_| |  |  |/  /          
                |  |  |   |  __  | /  /__\  \  |    /   |      \           
                |  |  |   | |  | | |   __   |  |    \   |  |\   \          
                \     /   | |  | | |  |  |  |  | |\  \  |  | \   \       
                 \___/    |_|  |_| |__|  |__|  |_| \__\ |__|  \__/        
                                                                              
                      - O R C A' S   B I G   F R I E N D -                    
                                      &                                       
                       - I N T E G R A L  F E E D E R -                       
                                                                              
 v1 FN, 2020, v2 2021                                                         
------------------------------------------------------------------------------


Reading SHARK input file /home/rwth0701/scratch/cs681498/orcajob__30556596-jyVH/19485.SHARKINP.tmp ... ok
----------------------
SHARK INTEGRAL PACKAGE
----------------------

Number of atoms                             ...      4
Number of basis functions                   ...     73
Number of shells                            ...     37
Maximum angular momentum                    ...      3
Integral batch strategy                     ... SHARK/LIBINT Hybrid
RI-J (if used) integral strategy            ... SPLIT-RIJ (Revised 2003 algorithm where possible)
Printlevel                                  ...      1
Contraction scheme used                     ... SEGMENTED contraction
Coulomb Range Separation                    ... NOT USED
Exchange Range Separation                   ... NOT USED
Finite Nucleus Model                        ... NOT USED
Auxiliary Coulomb fitting basis             ... AVAILABLE
   # of basis functions in Aux-J            ...    393
   # of shells in Aux-J                     ...    145
   Maximum angular momentum in Aux-J        ...      4
Auxiliary J/K fitting basis                 ... AVAILABLE
   # of basis functions in Aux-JK           ...    393
   # of shells in Aux-JK                    ...    145
   Maximum angular momentum in Aux-JK       ...      4
Auxiliary Correlation fitting basis         ... AVAILABLE
   # of basis functions in Aux-C            ...    393
   # of shells in Aux-C                     ...    145
   Maximum angular momentum in Aux-C        ...      4
Auxiliary 'external' fitting basis          ... NOT available
Integral threshold                          ...     1.000000e-10
Primitive cut-off                           ...     1.000000e-11
Primitive pair pre-selection threshold      ...     1.000000e-11

Calculating pre-screening integrals         ... done (  0.0 sec) Dimension = 37
Organizing shell pair data                  ... done (  0.1 sec)
Shell pair information
Total number of shell pairs                 ...       703
Shell pairs after pre-screening             ...       688
Total number of primitive shell pairs       ...      1300
Primitive shell pairs kept                  ...      1183
          la=0 lb=0:    261 shell pairs
          la=1 lb=0:    253 shell pairs
          la=1 lb=1:     66 shell pairs
          la=2 lb=0:     46 shell pairs
          la=2 lb=1:     22 shell pairs
          la=2 lb=2:      3 shell pairs
          la=3 lb=0:     23 shell pairs
          la=3 lb=1:     11 shell pairs
          la=3 lb=2:      2 shell pairs
          la=3 lb=3:      1 shell pairs

Calculating one electron integrals          ... done (  0.0 sec)
Calculating RI/J V-Matrix + Cholesky decomp.... done (  0.3 sec)
Calculating RI/JK V-Matrix + Cholesky decomp... done (  0.2 sec)
Calculating RI/C V-Matrix + Cholesky decomp.... done (  0.3 sec)
Calculating Nuclear repulsion               ... done (  0.1 sec) ENN=      9.688252985787 Eh

SHARK setup successfully completed in   1.4 seconds

Maximum memory used throughout the entire GTOINT-calculation: 13.7 MB


           ************************************************************
           *        Program running with 4 parallel MPI-processes     *
           *              working on a common directory               *
           ************************************************************
-------------------------------------------------------------------------------
                                 ORCA SCF
-------------------------------------------------------------------------------

------------
SCF SETTINGS
------------
Hamiltonian:
 Density Functional     Method          .... DFT(GTOs)
 Exchange Functional    Exchange        .... B88
   X-Alpha parameter    XAlpha          ....  0.666667
   Becke's b parameter  XBeta           ....  0.004200
 Correlation Functional Correlation     .... LYP
 LDA part of GGA corr.  LDAOpt          .... VWN-5
 Gradients option       PostSCFGGA      .... off
 Hybrid DFT is turned on
   Fraction HF Exchange ScalHFX         ....  0.200000
   Scaling of DF-GGA-X  ScalDFX         ....  0.720000
   Scaling of DF-GGA-C  ScalDFC         ....  0.810000
   Scaling of DF-LDA-C  ScalLDAC        ....  1.000000
   Perturbative correction              ....  0.000000
   Density functional embedding theory  .... OFF
   NL short-range parameter             ....  4.800000
 RI-approximation to the Coulomb term is turned on
   Number of AuxJ basis functions       .... 393
   RIJ-COSX (HFX calculated with COS-X)).... on


General Settings:
 Integral files         IntName         .... /home/rwth0701/scratch/cs681498/orcajob__30556596-jyVH/19485
 Hartree-Fock type      HFTyp           .... UHF
 Total Charge           Charge          ....    0
 Multiplicity           Mult            ....    2
 Number of Electrons    NEL             ....    9
 Basis Dimension        Dim             ....   73
 Nuclear Repulsion      ENuc            ....      9.6882529858 Eh

Convergence Acceleration:
 DIIS                   CNVDIIS         .... on
   Start iteration      DIISMaxIt       ....    12
   Startup error        DIISStart       ....  0.200000
   # of expansion vecs  DIISMaxEq       ....     5
   Bias factor          DIISBfac        ....   1.050
   Max. coefficient     DIISMaxC        ....  10.000
 Trust-Rad. Augm. Hess. CNVTRAH         .... auto
   Auto Start mean grad. ratio tolernc. ....  1.125000
   Auto Start start iteration           ....    20
   Auto Start num. interpolation iter.  ....    10
   Max. Number of Micro iterations      ....    16
   Max. Number of Macro iterations      .... Maxiter - #DIIS iter
   Number of Davidson start vectors     ....     2
   Converg. threshold I  (grad. norm)   ....   5.000e-05
   Converg. threshold II (energy diff.) ....   1.000e-06
   Grad. Scal. Fac. for Micro threshold ....   0.100
   Minimum threshold for Micro iter.    ....   0.010
   NR start threshold (gradient norm)   ....   0.001
   Initial trust radius                 ....   0.400
   Minimum AH scaling param. (alpha)    ....   1.000
   Maximum AH scaling param. (alpha)    .... 1000.000
   Orbital update algorithm             .... Taylor
   White noise on init. David. guess    .... on
   Maximum white noise                  ....   0.010
   Quad. conv. algorithm                .... NR
 SOSCF                  CNVSOSCF        .... off
 Level Shifting         CNVShift        .... on
   Level shift para.    LevelShift      ....    0.2500
   Turn off err/grad.   ShiftErr        ....    0.0010
 Zerner damping         CNVZerner       .... off
 Static damping         CNVDamp         .... on
   Fraction old density DampFac         ....    0.7000
   Max. Damping (<1)    DampMax         ....    0.9800
   Min. Damping (>=0)   DampMin         ....    0.0000
   Turn off err/grad.   DampErr         ....    0.1000
 Fernandez-Rico         CNVRico         .... off

SCF Procedure:
 Maximum # iterations   MaxIter         ....   125
 SCF integral mode      SCFMode         .... Direct
   Integral package                     .... SHARK and LIBINT hybrid scheme
 Reset frequency        DirectResetFreq ....    20
 Integral Threshold     Thresh          ....  1.000e-10 Eh
 Primitive CutOff       TCut            ....  1.000e-11 Eh

Convergence Tolerance:
 Convergence Check Mode ConvCheckMode   .... Total+1el-Energy
 Convergence forced     ConvForced      .... 0
 Energy Change          TolE            ....  1.000e-06 Eh
 1-El. energy change                    ....  1.000e-03 Eh
 DIIS Error             TolErr          ....  1.000e-06


Diagonalization of the overlap matrix:
Smallest eigenvalue                        ... 1.572e-03
Time for diagonalization                   ...    0.001 sec
Threshold for overlap eigenvalues          ... 1.000e-08
Number of eigenvalues below threshold      ... 0
Time for construction of square roots      ...    0.009 sec
Total time needed                          ...    0.010 sec

Time for model grid setup =    0.145 sec

------------------------------
INITIAL GUESS: MODEL POTENTIAL
------------------------------
Loading Hartree-Fock densities                     ... done
Calculating cut-offs                               ... done
Initializing the effective Hamiltonian             ... done
Setting up the integral package (SHARK)            ... done
Starting the Coulomb interaction                   ... done (   0.1 sec)
Reading the grid                                   ... done
Mapping shells                                     ... done
Starting the XC term evaluation                    ... done (   0.0 sec)
  promolecular density results
     # of electrons  =      8.998848241
     EX              =     -5.971560444
     EC              =     -0.260404212
     EX+EC           =     -6.231964656
Transforming the Hamiltonian                       ... done (   0.0 sec)
Diagonalizing the Hamiltonian                      ... done (   0.0 sec)
Back transforming the eigenvectors                 ... done (   0.0 sec)
Now organizing SCF variables                       ... done
                      ------------------
                      INITIAL GUESS DONE (   0.3 sec)
                      ------------------
-------------------
DFT GRID GENERATION
-------------------

General Integration Accuracy     IntAcc      ... 4.388
Radial Grid Type                 RadialGrid  ... OptM3 with GC (2021)
Angular Grid (max. ang.)         AngularGrid ... 4 (Lebedev-302)
Angular grid pruning method      GridPruning ... 4 (adaptive)
Weight generation scheme         WeightScheme... Becke
Basis function cutoff            BFCut       ... 1.0000e-10
Integration weight cutoff        WCut        ... 1.0000e-14
Angular grids for H and He will be reduced by one unit
Partially contracted basis set               ... off
Rotationally invariant grid construction     ... off

Total number of grid points                  ...    17035
Total number of batches                      ...      269
Average number of points per batch           ...       63
Average number of grid points per atom       ...     4259
Time for grid setup =    0.164 sec

--------------------
COSX GRID GENERATION
--------------------

GRIDX 1
-------
General Integration Accuracy     IntAcc      ... 3.816
Radial Grid Type                 RadialGrid  ... OptM3 with GC (2021)
Angular Grid (max. ang.)         AngularGrid ... 1 (Lebedev-50)
Angular grid pruning method      GridPruning ... 4 (adaptive)
Weight generation scheme         WeightScheme... Becke
Basis function cutoff            BFCut       ... 1.0000e-10
Integration weight cutoff        WCut        ... 1.0000e-14
Angular grids for H and He will be reduced by one unit
Partially contracted basis set               ... on
Rotationally invariant grid construction     ... off

Total number of grid points                  ...     2144
Total number of batches                      ...       35
Average number of points per batch           ...       61
Average number of grid points per atom       ...      536
UseSFitting                                  ... on

GRIDX 2
-------
General Integration Accuracy     IntAcc      ... 4.020
Radial Grid Type                 RadialGrid  ... OptM3 with GC (2021)
Angular Grid (max. ang.)         AngularGrid ... 2 (Lebedev-110)
Angular grid pruning method      GridPruning ... 4 (adaptive)
Weight generation scheme         WeightScheme... Becke
Basis function cutoff            BFCut       ... 1.0000e-10
Integration weight cutoff        WCut        ... 1.0000e-14
Angular grids for H and He will be reduced by one unit
Partially contracted basis set               ... on
Rotationally invariant grid construction     ... off

Total number of grid points                  ...     5049
Total number of batches                      ...       80
Average number of points per batch           ...       63
Average number of grid points per atom       ...     1262
UseSFitting                                  ... on

GRIDX 3
-------
General Integration Accuracy     IntAcc      ... 4.338
Radial Grid Type                 RadialGrid  ... OptM3 with GC (2021)
Angular Grid (max. ang.)         AngularGrid ... 3 (Lebedev-194)
Angular grid pruning method      GridPruning ... 4 (adaptive)
Weight generation scheme         WeightScheme... Becke
Basis function cutoff            BFCut       ... 1.0000e-10
Integration weight cutoff        WCut        ... 1.0000e-14
Angular grids for H and He will be reduced by one unit
Partially contracted basis set               ... on
Rotationally invariant grid construction     ... off

Total number of grid points                  ...    11717
Total number of batches                      ...      186
Average number of points per batch           ...       62
Average number of grid points per atom       ...     2929
UseSFitting                                  ... on

Time for X-Grid setup             =    0.720 sec

--------------
SCF ITERATIONS
--------------
ITER       Energy         Delta-E        Max-DP      RMS-DP      [F,P]     Damp
               ***  Starting incremental Fock matrix formation  ***
  0    -39.7832838975   0.000000000000 0.01556136  0.00050553  0.0912064 0.7000
  1    -39.8024573643  -0.019173466788 0.00975451  0.00037672  0.0482770 0.7000
                               ***Turning on DIIS***
  2    -39.8109711952  -0.008513830919 0.01569787  0.00065706  0.0198604 0.0000
  3    -39.8226083081  -0.011637112897 0.00873247  0.00028306  0.0286452 0.0000
  4    -39.8261340530  -0.003525744848 0.00306564  0.00007936  0.0059208 0.0000
  5    -39.8262781281  -0.000144075139 0.00108966  0.00003271  0.0019532 0.0000
  6    -39.8262954695  -0.000017341346 0.00089779  0.00002496  0.0008226 0.0000
               *** Restarting incremental Fock matrix formation ***
                                   *** Resetting DIIS ***
  7    -39.8263072434  -0.000011773965 0.00009127  0.00000309  0.0000968 0.0000
                 **** Energy Check signals convergence ****

               *****************************************************
               *                     SUCCESS                       *
               *           SCF CONVERGED AFTER   8 CYCLES          *
               *****************************************************

Old exchange energy                            =     -1.241665329 Eh
New exchange energy                            =     -1.241667479 Eh
Exchange energy change after final integration =     -0.000002149 Eh
Total energy after final integration           =    -39.826309466 Eh
Final COS-X integration done in                =     0.182 sec

----------------
TOTAL SCF ENERGY
----------------

Total Energy       :          -39.82630947 Eh           -1083.72898 eV

Components:
Nuclear Repulsion  :            9.68825299 Eh             263.63077 eV
Electronic Energy  :          -49.51456245 Eh           -1347.35974 eV
One Electron Energy:          -71.67528145 Eh           -1950.38356 eV
Two Electron Energy:           22.16071900 Eh             603.02382 eV
Max COSX asymmetry :            0.00000009 Eh               0.00000 eV

Virial components:
Potential Energy   :          -79.45885221 Eh           -2162.18529 eV
Kinetic Energy     :           39.63254274 Eh            1078.45632 eV
Virial Ratio       :            2.00488908


DFT components:
N(Alpha)           :        5.000001022000 electrons
N(Beta)            :        4.000000895779 electrons
N(Total)           :        9.000001917779 electrons
E(X)               :       -4.914255496767 Eh       
E(C)               :       -0.309754012800 Eh       
E(XC)              :       -5.224009509567 Eh       
DFET-embed. en.    :        0.000000000000 Eh       

---------------
SCF CONVERGENCE
---------------

  Last Energy change         ...   -7.3393e-08  Tolerance :   1.0000e-06
  Last MAX-Density change    ...    0.0000e+00  Tolerance :   1.0000e-05
  Last RMS-Density change    ...    0.0000e+00  Tolerance :   1.0000e-06
  Last DIIS Error            ...    6.7923e-05  Tolerance :   1.0000e-06

             **** THE GBW FILE WAS UPDATED (/home/rwth0701/scratch/cs681498/orcajob__30556596-jyVH/19485.gbw) ****
             **** DENSITY /home/rwth0701/scratch/cs681498/orcajob__30556596-jyVH/19485.scfp WAS UPDATED ****
             **** ENERGY FILE WAS UPDATED (/home/rwth0701/scratch/cs681498/orcajob__30556596-jyVH/19485.en.tmp) ****
----------------------
UHF SPIN CONTAMINATION
----------------------

Warning: in a DFT calculation there is little theoretical justification to 
         calculate <S**2> as in Hartree-Fock theory. We will do it anyways
         but you should keep in mind that the values have only limited relevance

Expectation value of <S**2>     :     0.753623
Ideal value S*(S+1) for S=0.5   :     0.750000
Deviation                       :     0.003623

             **** THE GBW FILE WAS UPDATED (/home/rwth0701/scratch/cs681498/orcajob__30556596-jyVH/19485.gbw) ****
             **** DENSITY /home/rwth0701/scratch/cs681498/orcajob__30556596-jyVH/19485.scfp WAS UPDATED ****
----------------
ORBITAL ENERGIES
----------------
                 SPIN UP ORBITALS
  NO   OCC          E(Eh)            E(eV) 
   0   1.0000     -10.183620      -277.1104 
   1   1.0000      -0.688533       -18.7359 
   2   1.0000      -0.433888       -11.8067 
   3   1.0000      -0.412153       -11.2152 
   4   1.0000      -0.234732        -6.3874 
   5   0.0000       0.001002         0.0273 
   6   0.0000       0.035678         0.9709 
   7   0.0000       0.037805         1.0287 
   8   0.0000       0.047499         1.2925 
   9   0.0000       0.088528         2.4090 
  10   0.0000       0.090209         2.4547 
  11   0.0000       0.099519         2.7080 
  12   0.0000       0.221084         6.0160 
  13   0.0000       0.224620         6.1122 
  14   0.0000       0.247349         6.7307 
  15   0.0000       0.276224         7.5164 
  16   0.0000       0.298672         8.1273 
  17   0.0000       0.315115         8.5747 
  18   0.0000       0.347225         9.4485 
  19   0.0000       0.552407        15.0317 
  20   0.0000       0.566127        15.4051 
  21   0.0000       0.737579        20.0705 
  22   0.0000       0.746239        20.3062 
  23   0.0000       0.767314        20.8797 
  24   0.0000       0.834380        22.7046 
  25   0.0000       0.879047        23.9201 
  26   0.0000       0.907475        24.6937 
  27   0.0000       0.944001        25.6876 
  28   0.0000       0.962075        26.1794 
  29   0.0000       1.061004        28.8714 
  30   0.0000       1.067473        29.0474 
  31   0.0000       1.114061        30.3151 
  32   0.0000       1.163639        31.6642 
  33   0.0000       1.168426        31.7945 
  34   0.0000       1.460294        39.7366 
  35   0.0000       1.484114        40.3848 
  36   0.0000       1.505573        40.9687 
  37   0.0000       1.701768        46.3075 
  38   0.0000       1.741242        47.3816 
  39   0.0000       1.757849        47.8335 
  40   0.0000       2.712804        73.8191 
  41   0.0000       2.729938        74.2854 
  42   0.0000       2.888955        78.6125 
  43   0.0000       2.895905        78.8016 
  44   0.0000       2.918077        79.4049 
  45   0.0000       2.976293        80.9890 
  46   0.0000       2.987935        81.3058 
  47   0.0000       3.158107        85.9365 
  48   0.0000       3.176042        86.4245 
  49   0.0000       3.245566        88.3163 
  50   0.0000       3.254651        88.5636 
  51   0.0000       3.714792       101.0846 
  52   0.0000       3.761523       102.3562 
  53   0.0000       3.793134       103.2164 
  54   0.0000       3.917610       106.6036 
  55   0.0000       3.973329       108.1198 
  56   0.0000       4.045185       110.0751 
  57   0.0000       4.149037       112.9010 
  58   0.0000       4.164348       113.3177 
  59   0.0000       4.171565       113.5141 
  60   0.0000       4.671047       127.1056 
  61   0.0000       4.999820       136.0520 
  62   0.0000       5.327498       144.9686 
  63   0.0000       5.449661       148.2928 
  64   0.0000       5.568412       151.5242 
  65   0.0000       6.076334       165.3455 
  66   0.0000       6.166645       167.8029 
  67   0.0000       7.762321       211.2235 
  68   0.0000      29.083312       791.3971 
  69   0.0000      37.121968      1010.1401 
  70   0.0000      37.215580      1012.6874 
  71   0.0000      37.240558      1013.3671 
  72   0.0000     133.543304      3633.8980 

                 SPIN DOWN ORBITALS
  NO   OCC          E(Eh)            E(eV) 
   0   1.0000     -10.169198      -276.7179 
   1   1.0000      -0.649125       -17.6636 
   2   1.0000      -0.424392       -11.5483 
   3   1.0000      -0.402652       -10.9567 
   4   0.0000      -0.077336        -2.1044 
   5   0.0000       0.004128         0.1123 
   6   0.0000       0.035315         0.9610 
   7   0.0000       0.037402         1.0177 
   8   0.0000       0.060752         1.6531 
   9   0.0000       0.089823         2.4442 
  10   0.0000       0.093072         2.5326 
  11   0.0000       0.101993         2.7754 
  12   0.0000       0.222153         6.0451 
  13   0.0000       0.225960         6.1487 
  14   0.0000       0.267092         7.2679 
  15   0.0000       0.303704         8.2642 
  16   0.0000       0.310616         8.4523 
  17   0.0000       0.320950         8.7335 
  18   0.0000       0.360224         9.8022 
  19   0.0000       0.579021        15.7560 
  20   0.0000       0.593824        16.1588 
  21   0.0000       0.739158        20.1135 
  22   0.0000       0.747758        20.3475 
  23   0.0000       0.793686        21.5973 
  24   0.0000       0.832676        22.6583 
  25   0.0000       0.883935        24.0531 
  26   0.0000       0.912220        24.8228 
  27   0.0000       0.960973        26.1494 
  28   0.0000       0.981666        26.7125 
  29   0.0000       1.087151        29.5829 
  30   0.0000       1.121086        30.5063 
  31   0.0000       1.137450        30.9516 
  32   0.0000       1.176362        32.0104 
  33   0.0000       1.180561        32.1247 
  34   0.0000       1.475319        40.1455 
  35   0.0000       1.497266        40.7427 
  36   0.0000       1.515206        41.2309 
  37   0.0000       1.707211        46.4556 
  38   0.0000       1.748271        47.5729 
  39   0.0000       1.766450        48.0676 
  40   0.0000       2.753662        74.9310 
  41   0.0000       2.770617        75.3923 
  42   0.0000       2.892116        78.6985 
  43   0.0000       2.919633        79.4472 
  44   0.0000       2.963734        80.6473 
  45   0.0000       2.994696        81.4898 
  46   0.0000       3.041218        82.7557 
  47   0.0000       3.209517        87.3354 
  48   0.0000       3.226227        87.7901 
  49   0.0000       3.302453        89.8643 
  50   0.0000       3.313103        90.1541 
  51   0.0000       3.762044       102.3704 
  52   0.0000       3.775414       102.7342 
  53   0.0000       3.791894       103.1827 
  54   0.0000       3.918283       106.6219 
  55   0.0000       3.987591       108.5079 
  56   0.0000       4.062418       110.5440 
  57   0.0000       4.152908       113.0064 
  58   0.0000       4.174552       113.5953 
  59   0.0000       4.189225       113.9946 
  60   0.0000       4.671279       127.1120 
  61   0.0000       5.022308       136.6640 
  62   0.0000       5.326523       144.9421 
  63   0.0000       5.447447       148.2326 
  64   0.0000       5.566143       151.4624 
  65   0.0000       6.079002       165.4181 
  66   0.0000       6.170056       167.8958 
  67   0.0000       7.797709       212.1864 
  68   0.0000      29.110177       792.1282 
  69   0.0000      37.110012      1009.8148 
  70   0.0000      37.203361      1012.3549 
  71   0.0000      37.229496      1013.0661 
  72   0.0000     133.551160      3634.1118 

                    ********************************
                    * MULLIKEN POPULATION ANALYSIS *
                    ********************************

--------------------------------------------
MULLIKEN ATOMIC CHARGES AND SPIN POPULATIONS
--------------------------------------------
   0 C :   -0.427884    1.103081
   1 H :    0.136044   -0.036679
   2 H :    0.146767   -0.034191
   3 H :    0.145073   -0.032211
Sum of atomic charges         :    0.0000000
Sum of atomic spin populations:    1.0000000

-----------------------------------------------------
MULLIKEN REDUCED ORBITAL CHARGES AND SPIN POPULATIONS
-----------------------------------------------------
CHARGE
  0 C s       :     3.331054  s :     3.331054
      pz      :     0.968653  p :     3.070037
      px      :     1.054938
      py      :     1.046446
      dz2     :     0.005670  d :     0.023738
      dxz     :     0.000146
      dyz     :     0.000225
      dx2y2   :     0.010408
      dxy     :     0.007289
      f0      :     0.000050  f :     0.003055
      f+1     :     0.000715
      f-1     :     0.000645
      f+2     :     0.000024
      f-2     :     0.000037
      f+3     :     0.000757
      f-3     :     0.000827
  1 H s       :     0.838640  s :     0.838640
      pz      :     0.009963  p :     0.025316
      px      :     0.005987
      py      :     0.009366
  2 H s       :     0.826425  s :     0.826425
      pz      :     0.010760  p :     0.026809
      px      :     0.008032
      py      :     0.008016
  3 H s       :     0.826521  s :     0.826521
      pz      :     0.011265  p :     0.028405
      px      :     0.009956
      py      :     0.007184

SPIN
  0 C s       :     0.067196  s :     0.067196
      pz      :     0.958950  p :     1.040236
      px      :     0.037604
      py      :     0.043682
      dz2     :    -0.004623  d :    -0.002997
      dxz     :    -0.000036
      dyz     :    -0.000090
      dx2y2   :     0.001083
      dxy     :     0.000669
      f0      :    -0.000030  f :    -0.001355
      f+1     :    -0.000639
      f-1     :    -0.000594
      f+2     :    -0.000018
      f-2     :    -0.000014
      f+3     :    -0.000028
      f-3     :    -0.000032
  1 H s       :    -0.046153  s :    -0.046153
      pz      :     0.009876  p :     0.009474
      px      :    -0.000351
      py      :    -0.000051
  2 H s       :    -0.044716  s :    -0.044716
      pz      :     0.010679  p :     0.010525
      px      :    -0.000083
      py      :    -0.000070
  3 H s       :    -0.042956  s :    -0.042956
      pz      :     0.011184  p :     0.010745
      px      :    -0.000080
      py      :    -0.000359


                     *******************************
                     * LOEWDIN POPULATION ANALYSIS *
                     *******************************

-------------------------------------------
LOEWDIN ATOMIC CHARGES AND SPIN POPULATIONS
-------------------------------------------
   0 C :   -0.147338    0.906521
   1 H :    0.063122    0.026292
   2 H :    0.055066    0.029388
   3 H :    0.029151    0.037798

----------------------------------------------------
LOEWDIN REDUCED ORBITAL CHARGES AND SPIN POPULATIONS
----------------------------------------------------
CHARGE
  0 C s       :     2.879760  s :     2.879760
      pz      :     0.873669  p :     3.168632
      px      :     1.154781
      py      :     1.140182
      dz2     :     0.007092  d :     0.091330
      dxz     :     0.000467
      dyz     :     0.000593
      dx2y2   :     0.046616
      dxy     :     0.036561
      f0      :     0.000304  f :     0.007617
      f+1     :     0.002011
      f-1     :     0.001817
      f+2     :     0.000085
      f-2     :     0.000075
      f+3     :     0.001575
      f-3     :     0.001750
  1 H s       :     0.800515  s :     0.800515
      pz      :     0.039418  p :     0.136363
      px      :     0.030819
      py      :     0.066127
  2 H s       :     0.802823  s :     0.802823
      pz      :     0.041866  p :     0.142112
      px      :     0.050916
      py      :     0.049330
  3 H s       :     0.811252  s :     0.811252
      pz      :     0.047715  p :     0.159597
      px      :     0.072818
      py      :     0.039064

SPIN
  0 C s       :     0.019084  s :     0.019084
      pz      :     0.862806  p :     0.896230
      px      :     0.014361
      py      :     0.019063
      dz2     :    -0.004022  d :    -0.007473
      dxz     :    -0.000053
      dyz     :    -0.000107
      dx2y2   :    -0.001848
      dxy     :    -0.001443
      f0      :     0.000149  f :    -0.001320
      f+1     :    -0.000578
      f-1     :    -0.000541
      f+2     :    -0.000018
      f-2     :    -0.000016
      f+3     :    -0.000147
      f-3     :    -0.000168
  1 H s       :    -0.017805  s :    -0.017805
      pz      :     0.038935  p :     0.044097
      px      :     0.000595
      py      :     0.004567
  2 H s       :    -0.017567  s :    -0.017567
      pz      :     0.041321  p :     0.046955
      px      :     0.002824
      py      :     0.002810
  3 H s       :    -0.015191  s :    -0.015191
      pz      :     0.047305  p :     0.052990
      px      :     0.004636
      py      :     0.001049


                      *****************************
                      * MAYER POPULATION ANALYSIS *
                      *****************************

  NA   - Mulliken gross atomic population
  ZA   - Total nuclear charge
  QA   - Mulliken gross atomic charge
  VA   - Mayer's total valence
  BVA  - Mayer's bonded valence
  FA   - Mayer's free valence

  ATOM       NA         ZA         QA         VA         BVA        FA
  0 C      6.4279     6.0000    -0.4279     3.8781     2.9332     0.9449
  1 H      0.8640     1.0000     0.1360     0.9828     0.9807     0.0021
  2 H      0.8532     1.0000     0.1468     0.9860     0.9840     0.0020
  3 H      0.8549     1.0000     0.1451     0.9821     0.9803     0.0018

  Mayer bond orders larger than 0.100000
B(  0-C ,  1-H ) :   0.9786 B(  0-C ,  2-H ) :   0.9767 B(  0-C ,  3-H ) :   0.9779 


-------
TIMINGS
-------

Total SCF time: 0 days 0 hours 0 min 8 sec 

Total time                  ....       8.789 sec
Sum of individual times     ....       7.594 sec  ( 86.4%)

Fock matrix formation       ....       5.925 sec  ( 67.4%)
  Split-RI-J                ....       0.640 sec  ( 10.8% of F)
  Chain of spheres X        ....       1.039 sec  ( 17.5% of F)
  XC integration            ....       2.225 sec  ( 37.5% of F)
    Basis function eval.    ....       0.110 sec  (  5.0% of XC)
    Density eval.           ....       0.128 sec  (  5.8% of XC)
    XC-Functional eval.     ....       0.118 sec  (  5.3% of XC)
    XC-Potential eval.      ....       0.155 sec  (  7.0% of XC)
Diagonalization             ....       0.084 sec  (  1.0%)
Density matrix formation    ....       0.003 sec  (  0.0%)
Population analysis         ....       0.123 sec  (  1.4%)
Initial guess               ....       0.161 sec  (  1.8%)
Orbital Transformation      ....       0.000 sec  (  0.0%)
Orbital Orthonormalization  ....       0.000 sec  (  0.0%)
DIIS solution               ....       0.271 sec  (  3.1%)
Grid generation             ....       1.028 sec  ( 11.7%)

Maximum memory used throughout the entire SCF-calculation: 59.0 MB

-------------------------   --------------------
FINAL SINGLE POINT ENERGY       -39.826309466318
-------------------------   --------------------

   --->>> g-tensor requested, so NeedSOC=true

                            ***************************************
                            *     ORCA property calculations      *
                            ***************************************

                                    ---------------------
                                    Active property flags
                                    ---------------------
   (+) Dipole Moment
   (+) g-tensor
   (+) Nuclear properties (Hyperfine,Quadrupole)
   (+) Spin-Orbit Integrals are needed


------------------------------------------------------------------------------
                       ORCA ELECTRIC PROPERTIES CALCULATION
------------------------------------------------------------------------------

Dipole Moment Calculation                       ... on
Quadrupole Moment Calculation                   ... off
Polarizability Calculation                      ... off
GBWName                                         ... /home/rwth0701/scratch/cs681498/orcajob__30556596-jyVH/19485.gbw
Electron density                                ... /home/rwth0701/scratch/cs681498/orcajob__30556596-jyVH/19485.scfp
The origin for moment calculation is the CENTER OF MASS  = (-174.280129, -229.714574 -62.533594)

-------------
DIPOLE MOMENT
-------------
                                X             Y             Z
Electronic contribution:     -0.00755       0.08920       0.01636
Nuclear contribution   :     -0.00219      -0.09067      -0.02273
                        -----------------------------------------
Total Dipole Moment    :     -0.00974      -0.00147      -0.00637
                        -----------------------------------------
Magnitude (a.u.)       :      0.01173
Magnitude (Debye)      :      0.02981



--------------------
Rotational spectrum 
--------------------
 
Rotational constants in cm-1:    10.378690     8.892720     4.789502 
Rotational constants in MHz : 311145.299766 266597.042324 143585.662359 

 Dipole components along the rotational axes: 
x,y,z [a.u.] :    -0.007586    -0.006900    -0.005692 
x,y,z [Debye]:    -0.019282    -0.017539    -0.014468 

 


           ************************************************************
           *        Program running with 4 parallel MPI-processes     *
           *              working on a common directory               *
           ************************************************************
------------------------------------------------------------------------------
                         ORCA SPIN-ORBIT COUPLING CALCULATION
------------------------------------------------------------------------------

GBW file                                    ... /home/rwth0701/scratch/cs681498/orcajob__30556596-jyVH/19485.gbw
Input density                               ... /home/rwth0701/scratch/cs681498/orcajob__30556596-jyVH/19485.scfp
Output integrals                            ... /home/rwth0701/scratch/cs681498/orcajob__30556596-jyVH/19485
Operator type                               ... Mean-field/Effective potential
   One-Electron Terms                       ... 1
   Coulomb Contribution                     ... 3
   Exchange Contribution                    ... 3
   Correlation Contribution                 ... 0
   Maximum number of centers                ... 4
SHARK 2-electron RIJ-SOMF                   ... done (  0.1 sec)
SHARK 1-electron  MaxCenter=4               ... done (  0.0 sec)
SHARK 2-electron DoJ,X=0,1 MaxCenter=1      ... done (  0.1 sec)

Maximum memory used throughout the entire SOC-calculation: 11.3 MB
Total time for SOC:  3.325


           ************************************************************
           *        Program running with 4 parallel MPI-processes     *
           *              working on a common directory               *
           ************************************************************
------------------------------------------------------------------------------
                                ORCA EPR/NMR CALCULATION
------------------------------------------------------------------------------

GBWName                      ... /home/rwth0701/scratch/cs681498/orcajob__30556596-jyVH/19485.gbw
Electron density             ... /home/rwth0701/scratch/cs681498/orcajob__30556596-jyVH/19485.scfp
Spin density                 ... /home/rwth0701/scratch/cs681498/orcajob__30556596-jyVH/19485.scfr
Spin-orbit integrals         ... /home/rwth0701/scratch/cs681498/orcajob__30556596-jyVH/19485
Treatment of gauge           ... GIAO (approximations 1/2el = 0,0)
Details of the CP(SCF) procedure:
       Solver   = POPLE   
       MaxIter  =    64   
       Tolerance=    1.000e-03
       COSX Grid=     1   
       Op-0     =   0-  4 =>   5- 72
       Op-1     =   0-  3 =>   4- 72
Multiplicity                 ... 2
g-tensor                     ... 1
NMR chemical shifts          ... 0
NMR spin-spin couplings      ... 0
NMR spectrum                 ... 0
Number of nuclei for epr/nmr ... 4
   Nucleus:   1H 
       Hyperfine : Isotope=    1 I=   0.500 P= 533.551
       Quadrupole: Isotope=    2 I=   1.000 Q=   0.003
       Spin-Orbit: Zeff=   1.000
       Nuclear Spin-Spin: Gn=   0.000
       EPRNMR Input: 
       rho(0)=N f(grad)=N a(iso)=Y a(dip)=Y a(orb)=Y sigma(nmr)=N spin-spin(nmr)=all-N,DSO-N,PSO-N,FC-N,SD-N
   Nucleus:   2H 
       Hyperfine : Isotope=    1 I=   0.500 P= 533.551
       Quadrupole: Isotope=    2 I=   1.000 Q=   0.003
       Spin-Orbit: Zeff=   1.000
       Nuclear Spin-Spin: Gn=   0.000
       EPRNMR Input: 
       rho(0)=N f(grad)=N a(iso)=Y a(dip)=Y a(orb)=Y sigma(nmr)=N spin-spin(nmr)=all-N,DSO-N,PSO-N,FC-N,SD-N
   Nucleus:   3H 
       Hyperfine : Isotope=    1 I=   0.500 P= 533.551
       Quadrupole: Isotope=    2 I=   1.000 Q=   0.003
       Spin-Orbit: Zeff=   1.000
       Nuclear Spin-Spin: Gn=   0.000
       EPRNMR Input: 
       rho(0)=N f(grad)=N a(iso)=Y a(dip)=Y a(orb)=Y sigma(nmr)=N spin-spin(nmr)=all-N,DSO-N,PSO-N,FC-N,SD-N
   Nucleus:   0C 
       Hyperfine : Isotope=   13 I=   0.500 P= 134.190
       Quadrupole: Isotope=   13 I=   0.500 Q=   0.000
       Spin-Orbit: Zeff=   3.600
       Nuclear Spin-Spin: Gn=   0.000
       EPRNMR Input: 
       rho(0)=N f(grad)=N a(iso)=Y a(dip)=Y a(orb)=Y sigma(nmr)=N spin-spin(nmr)=all-N,DSO-N,PSO-N,FC-N,SD-N
Forming RHS of the CP-SCF equations         ... 
Calculating right hand sides for GIAO treatment        ... 
  Entering RightHandSide GIAO. ScalHFX=    0.2000 NeedHFX=1
     -> 1-electron GIAO integrals will be done analytically
     -> RIJCOSX used in SCF. Same chosen for GIAO calculation.
     Making grid for GIAO integrations   ...

GRID GIAO
---------

General Integration Accuracy     IntAcc      ... 4.388
Radial Grid Type                 RadialGrid  ... OptM3 with GC (2021)
Angular Grid (max. ang.)         AngularGrid ... 4 (Lebedev-302)
Angular grid pruning method      GridPruning ... 4 (adaptive)
Weight generation scheme         WeightScheme... Becke
Basis function cutoff            BFCut       ... 1.0000e-10
Integration weight cutoff        WCut        ... 1.0000e-14
Angular grids for H and He will be reduced by one unit
Partially contracted basis set               ... off
Rotationally invariant grid construction     ... off

Total number of grid points                  ...    17035
Total number of batches                      ...      269
Average number of points per batch           ...       63
Average number of grid points per atom       ...     4259

  One-electron GIAO integrals (SHARK)     ... done
  Calculating G(B)[P]                     ... (RI-J: SHARK-ok) (COSX-ok) (add-J+K:ok) => dG/dB done
  DFT XC-terms                            ... done
  Extracting occupied and virtual blocks  ... 
  Operator  0  NO=   5 NV=  68 
  Operator  1  NO=   4 NV=  69 
  Transforming and RHS contribution       ... done
  Adding eps_i * S(B)_ai terms            ... done
  Projecting overlap derivatives          ... done
  Building G[dS/dB_ij] (COSX)             ... done
  Transforming to MO basis                ... done
  Summing G[dS/dB_ij] into RHS contribs.  ... done

  GIAO profiling information: 
    Total GIAO time               ...       0.8 sec
       GIAO 1-electron integrals  ...       0.0 sec (  0.7%)
       GIAO G(dS/dB) terms        ...       0.1 sec ( 12.4%)
       GIAO RI-J                  ...       0.1 sec ( 12.2%)
       GIAO COSX                  ...       0.1 sec ( 17.5%)
       GIAO XC-terms              ...       0.3 sec ( 34.9%)

  GIAO right hand side done


------------------------------------------------------------------------------
                           ORCA CP-SCF CALCULATION
------------------------------------------------------------------------------

Input orbitals are from        ... /home/rwth0701/scratch/cs681498/orcajob__30556596-jyVH/19485.gbw
Input Perturbation             ... /home/rwth0701/scratch/cs681498/orcajob__30556596-jyVH/19485.pin.tmp
Wavefunction output            ... /home/rwth0701/scratch/cs681498/orcajob__30556596-jyVH/19485.pout.tmp
Perturbation mode              ... Imaginary perturbation
Solver                         ... POPLE
Max. number of iterations      ... 64
Convergence tolerance          ... 1.000e-03
Integral handling              ... Direct
DFT GridXC                     ... 1
COSX GridX                     ... 1
COSX IntAccX                   ... 3.067
COSX Algorithm                 ... Auto
Number of perturbations        ... 3
Number of operators            ... 2
Orbital ranges used for CP-SCF:
 Operator 0:  Orbitals   0...  4  to   5... 72
 Operator 1:  Orbitals   0...  3  to   4... 72
Variables per perturbation     ... 616
DFT calculation                         ... on
XC functional terms                     ... off
Hybrid DFT                              ... on
   Exchange mixing (SCF)                ...  0.200
   Exchange mixing (CP-SCF)             ...  0.200
   GGA exch. scaling(SCF)               ...  0.720
   GGA exch. scaling (CP-SCF)           ...  0.720
   GGA corr. scaling (SCF)              ...  0.810
   GGA corr. scaling (CP-SCF)           ...  0.810

CP-SCF GRID
-----------

General Integration Accuracy     IntAcc      ... 3.467
Radial Grid Type                 RadialGrid  ... OptM3 with GC (2021)
Angular Grid (max. ang.)         AngularGrid ... 1 (Lebedev-50)
Angular grid pruning method      GridPruning ... 4 (adaptive)
Weight generation scheme         WeightScheme... Becke
Basis function cutoff            BFCut       ... 1.0000e-10
Integration weight cutoff        WCut        ... 1.0000e-14
Angular grids for H and He will be reduced by one unit
Partially contracted basis set               ... off
Rotationally invariant grid construction     ... off

Total number of grid points                  ...     2340
Total number of batches                      ...       38
Average number of points per batch           ...       61
Average number of grid points per atom       ...      585

CP-SCF GRIDX
------------

General Integration Accuracy     IntAcc      ... 3.067
Radial Grid Type                 RadialGrid  ... OptM3 with GC (2021)
Angular Grid (max. ang.)         AngularGrid ... 1 (Lebedev-50)
Angular grid pruning method      GridPruning ... 4 (adaptive)
Weight generation scheme         WeightScheme... Becke
Basis function cutoff            BFCut       ... 1.0000e-10
Integration weight cutoff        WCut        ... 1.0000e-14
Angular grids for H and He will be reduced by one unit
Partially contracted basis set               ... on
Rotationally invariant grid construction     ... off

Total number of grid points                  ...     1071
Total number of batches                      ...       20
Average number of points per batch           ...       53
Average number of grid points per atom       ...      268

Memory available               ... 1014.6 MB
Memory needed per perturbation ...   0.4 MB
Perturbations treated per batch... 3
Number of batches              ... 1
     CP-SCF ITERATION   0:   1.1983e+01 (   0.1 sec   0/  3 done)
     CP-SCF ITERATION   1:   9.8057e-02 (   0.1 sec   0/  3 done)
     CP-SCF ITERATION   2:   3.6359e-03 (   0.1 sec   0/  3 done)
     CP-SCF ITERATION   3:   3.0978e-04 (   0.1 sec   3/  3 done)
                    *** THE CP-SCF HAS CONVERGED ***

Forming final perturbed densities           ... done
Transforming perturbed density to AO basis  ... done

Magnetic field perturbation calculated in  1.415 sec
GIAO: Diamagnetic terms      (analytic)     (SHARK) ... done
GIAO: 1el-Paramagnetic terms (analytic)     (SHARK) ... done

-------------------
ELECTRONIC G-MATRIX
-------------------

 The g-matrix: 
              2.0028978    0.0000158    0.0000362
              0.0000117    2.0029091    0.0000561
              0.0000293    0.0000468    2.0022415

 gel          2.0023193    2.0023193    2.0023193
 gRMC        -0.0001268   -0.0001268   -0.0001268
 gDSO(tot)    0.0000343    0.0000709    0.0000710
 gPSO(tot)    0.0000092    0.0006251    0.0006602
             ----------   ----------   ----------
 g(tot)       2.0022360    2.0028886    2.0029237 iso=  2.0026828
 Delta-g     -0.0000833    0.0005693    0.0006044 iso=  0.0003635
 Orientation: 
  X          -0.0477480   -0.8332468   -0.5508356
  Y          -0.0751507    0.5528984   -0.8298529
  Z           0.9960284    0.0017719   -0.0890189

Notes:  (1) The g-matrix conforms to the "BgS" spin Hamiltonian convention. 
        (2) The principal values are square roots of the eigenvalues of g*gT.
        (3) Orientations are eigenvectors of g*gT written as column vectors.
        (4) Individual contributions are projections of the full matrices onto the eigenvectors of g*gT.
        (5) Tensor is right-handed.


-----------------------------------------
ELECTRIC AND MAGNETIC HYPERFINE STRUCTURE
-----------------------------------------

 -----------------------------------------------------------
 Nucleus   1H : A:ISTP=    1 I=  0.5 P=533.5514 MHz/au**3
                Q:ISTP=    2 I=  1.0 Q=  0.0029 barn     
 -----------------------------------------------------------
 Solving for nuclear perturbation:
Forming RHS of the CP-SCF equations         ... 
Calc. nucleus orbit integrals (SHARK)       ... done

------------------------------------------------------------------------------
                           ORCA CP-SCF CALCULATION
------------------------------------------------------------------------------

Input orbitals are from        ... /home/rwth0701/scratch/cs681498/orcajob__30556596-jyVH/19485.gbw
Input Perturbation             ... /home/rwth0701/scratch/cs681498/orcajob__30556596-jyVH/19485.pin.tmp
Wavefunction output            ... /home/rwth0701/scratch/cs681498/orcajob__30556596-jyVH/19485.pout.tmp
Perturbation mode              ... Imaginary perturbation
Solver                         ... POPLE
Max. number of iterations      ... 64
Convergence tolerance          ... 1.000e-03
Integral handling              ... Direct
DFT GridXC                     ... 1
COSX GridX                     ... 1
COSX IntAccX                   ... 3.067
COSX Algorithm                 ... Auto
Number of perturbations        ... 3
Number of operators            ... 2
Orbital ranges used for CP-SCF:
 Operator 0:  Orbitals   0...  4  to   5... 72
 Operator 1:  Orbitals   0...  3  to   4... 72
Variables per perturbation     ... 616
DFT calculation                         ... on
XC functional terms                     ... off
Hybrid DFT                              ... on
   Exchange mixing (SCF)                ...  0.200
   Exchange mixing (CP-SCF)             ...  0.200
   GGA exch. scaling(SCF)               ...  0.720
   GGA exch. scaling (CP-SCF)           ...  0.720
   GGA corr. scaling (SCF)              ...  0.810
   GGA corr. scaling (CP-SCF)           ...  0.810

CP-SCF GRID
-----------

General Integration Accuracy     IntAcc      ... 3.467
Radial Grid Type                 RadialGrid  ... OptM3 with GC (2021)
Angular Grid (max. ang.)         AngularGrid ... 1 (Lebedev-50)
Angular grid pruning method      GridPruning ... 4 (adaptive)
Weight generation scheme         WeightScheme... Becke
Basis function cutoff            BFCut       ... 1.0000e-10
Integration weight cutoff        WCut        ... 1.0000e-14
Angular grids for H and He will be reduced by one unit
Partially contracted basis set               ... off
Rotationally invariant grid construction     ... off

Total number of grid points                  ...     2340
Total number of batches                      ...       38
Average number of points per batch           ...       61
Average number of grid points per atom       ...      585

CP-SCF GRIDX
------------

General Integration Accuracy     IntAcc      ... 3.067
Radial Grid Type                 RadialGrid  ... OptM3 with GC (2021)
Angular Grid (max. ang.)         AngularGrid ... 1 (Lebedev-50)
Angular grid pruning method      GridPruning ... 4 (adaptive)
Weight generation scheme         WeightScheme... Becke
Basis function cutoff            BFCut       ... 1.0000e-10
Integration weight cutoff        WCut        ... 1.0000e-14
Angular grids for H and He will be reduced by one unit
Partially contracted basis set               ... on
Rotationally invariant grid construction     ... off

Total number of grid points                  ...     1071
Total number of batches                      ...       20
Average number of points per batch           ...       53
Average number of grid points per atom       ...      268

Memory available               ... 968.0 MB
Memory needed per perturbation ...   0.4 MB
Perturbations treated per batch... 3
Number of batches              ... 1
     CP-SCF ITERATION   0:   5.8960e-02 (   0.1 sec   0/  3 done)
     CP-SCF ITERATION   1:   2.1001e-03 (   0.1 sec   1/  3 done)
     CP-SCF ITERATION   2:   1.5873e-04 (   0.1 sec   3/  3 done)
                    *** THE CP-SCF HAS CONVERGED ***

Forming final perturbed densities           ... done
Transforming perturbed density to AO basis  ... done

 Raw HFC matrix (all values in MHz): 
 -----------------------------------
               -99.4584             -14.7789              -3.1278
               -14.7794             -30.5437               2.3165
                -3.1278               2.3166             -64.9831

 A(FC)         -65.0096             -65.0096             -65.0096
 A(SD)          37.7109              -0.0167             -37.6943
 A(ORB+DIA)      0.0140              -0.0007               0.0301    A(PC) =   0.0145
 A(ORB)          0.0094               0.0004               0.0288    A(PC) =   0.0129
 A(DIA)          0.0046              -0.0011               0.0013    A(PC) =   0.0016
             ----------           ----------           ----------
 A(Tot)        -27.2846             -65.0269            -102.6737    A(iso)=  -64.9951
 Orientation: 
  X          -0.2032077           -0.0520928            0.9777489
  Y           0.9761159           -0.0891444            0.1981188
  Z           0.0768403            0.9946555            0.0689635

Notes:  (1) The A matrix conforms to the "SAI" spin Hamiltonian convention.
        (2) Tensor is right-handed.

 -----------------------------------------------------------
 Nucleus   2H : A:ISTP=    1 I=  0.5 P=533.5514 MHz/au**3
                Q:ISTP=    2 I=  1.0 Q=  0.0029 barn     
 -----------------------------------------------------------
 Solving for nuclear perturbation:
Forming RHS of the CP-SCF equations         ... 
Calc. nucleus orbit integrals (SHARK)       ... done

------------------------------------------------------------------------------
                           ORCA CP-SCF CALCULATION
------------------------------------------------------------------------------

Input orbitals are from        ... /home/rwth0701/scratch/cs681498/orcajob__30556596-jyVH/19485.gbw
Input Perturbation             ... /home/rwth0701/scratch/cs681498/orcajob__30556596-jyVH/19485.pin.tmp
Wavefunction output            ... /home/rwth0701/scratch/cs681498/orcajob__30556596-jyVH/19485.pout.tmp
Perturbation mode              ... Imaginary perturbation
Solver                         ... POPLE
Max. number of iterations      ... 64
Convergence tolerance          ... 1.000e-03
Integral handling              ... Direct
DFT GridXC                     ... 1
COSX GridX                     ... 1
COSX IntAccX                   ... 3.067
COSX Algorithm                 ... Auto
Number of perturbations        ... 3
Number of operators            ... 2
Orbital ranges used for CP-SCF:
 Operator 0:  Orbitals   0...  4  to   5... 72
 Operator 1:  Orbitals   0...  3  to   4... 72
Variables per perturbation     ... 616
DFT calculation                         ... on
XC functional terms                     ... off
Hybrid DFT                              ... on
   Exchange mixing (SCF)                ...  0.200
   Exchange mixing (CP-SCF)             ...  0.200
   GGA exch. scaling(SCF)               ...  0.720
   GGA exch. scaling (CP-SCF)           ...  0.720
   GGA corr. scaling (SCF)              ...  0.810
   GGA corr. scaling (CP-SCF)           ...  0.810

CP-SCF GRID
-----------

General Integration Accuracy     IntAcc      ... 3.467
Radial Grid Type                 RadialGrid  ... OptM3 with GC (2021)
Angular Grid (max. ang.)         AngularGrid ... 1 (Lebedev-50)
Angular grid pruning method      GridPruning ... 4 (adaptive)
Weight generation scheme         WeightScheme... Becke
Basis function cutoff            BFCut       ... 1.0000e-10
Integration weight cutoff        WCut        ... 1.0000e-14
Angular grids for H and He will be reduced by one unit
Partially contracted basis set               ... off
Rotationally invariant grid construction     ... off

Total number of grid points                  ...     2340
Total number of batches                      ...       38
Average number of points per batch           ...       61
Average number of grid points per atom       ...      585

CP-SCF GRIDX
------------

General Integration Accuracy     IntAcc      ... 3.067
Radial Grid Type                 RadialGrid  ... OptM3 with GC (2021)
Angular Grid (max. ang.)         AngularGrid ... 1 (Lebedev-50)
Angular grid pruning method      GridPruning ... 4 (adaptive)
Weight generation scheme         WeightScheme... Becke
Basis function cutoff            BFCut       ... 1.0000e-10
Integration weight cutoff        WCut        ... 1.0000e-14
Angular grids for H and He will be reduced by one unit
Partially contracted basis set               ... on
Rotationally invariant grid construction     ... off

Total number of grid points                  ...     1071
Total number of batches                      ...       20
Average number of points per batch           ...       53
Average number of grid points per atom       ...      268

Memory available               ... 967.8 MB
Memory needed per perturbation ...   0.4 MB
Perturbations treated per batch... 3
Number of batches              ... 1
     CP-SCF ITERATION   0:   6.2963e-02 (   0.1 sec   0/  3 done)
     CP-SCF ITERATION   1:   2.5553e-03 (   0.1 sec   1/  3 done)
     CP-SCF ITERATION   2:   2.2605e-04 (   0.1 sec   3/  3 done)
                    *** THE CP-SCF HAS CONVERGED ***

Forming final perturbed densities           ... done
Transforming perturbed density to AO basis  ... done

 Raw HFC matrix (all values in MHz): 
 -----------------------------------
               -65.3993              38.5349               3.0208
                38.5360             -69.7014               1.6072
                 3.0209               1.6072             -65.8803

 A(FC)         -67.0078             -67.0078             -67.0078
 A(SD)          38.3323               0.8562             -39.1885
 A(ORB+DIA)      0.0132              -0.0007               0.0301    A(PC) =   0.0142
 A(ORB)          0.0083               0.0005               0.0287    A(PC) =   0.0125
 A(DIA)          0.0049              -0.0012               0.0014    A(PC) =   0.0017
             ----------           ----------           ----------
 A(Tot)        -28.6624             -66.1523            -106.1663    A(iso)=  -66.9937
 Orientation: 
  X           0.7244162           -0.0486366            0.6876450
  Y           0.6836815           -0.0771138           -0.7256949
  Z           0.0883223            0.9958353           -0.0226106

Notes:  (1) The A matrix conforms to the "SAI" spin Hamiltonian convention.
        (2) Tensor is right-handed.

 -----------------------------------------------------------
 Nucleus   3H : A:ISTP=    1 I=  0.5 P=533.5514 MHz/au**3
                Q:ISTP=    2 I=  1.0 Q=  0.0029 barn     
 -----------------------------------------------------------
 Solving for nuclear perturbation:
Forming RHS of the CP-SCF equations         ... 
Calc. nucleus orbit integrals (SHARK)       ... done

------------------------------------------------------------------------------
                           ORCA CP-SCF CALCULATION
------------------------------------------------------------------------------

Input orbitals are from        ... /home/rwth0701/scratch/cs681498/orcajob__30556596-jyVH/19485.gbw
Input Perturbation             ... /home/rwth0701/scratch/cs681498/orcajob__30556596-jyVH/19485.pin.tmp
Wavefunction output            ... /home/rwth0701/scratch/cs681498/orcajob__30556596-jyVH/19485.pout.tmp
Perturbation mode              ... Imaginary perturbation
Solver                         ... POPLE
Max. number of iterations      ... 64
Convergence tolerance          ... 1.000e-03
Integral handling              ... Direct
DFT GridXC                     ... 1
COSX GridX                     ... 1
COSX IntAccX                   ... 3.067
COSX Algorithm                 ... Auto
Number of perturbations        ... 3
Number of operators            ... 2
Orbital ranges used for CP-SCF:
 Operator 0:  Orbitals   0...  4  to   5... 72
 Operator 1:  Orbitals   0...  3  to   4... 72
Variables per perturbation     ... 616
DFT calculation                         ... on
XC functional terms                     ... off
Hybrid DFT                              ... on
   Exchange mixing (SCF)                ...  0.200
   Exchange mixing (CP-SCF)             ...  0.200
   GGA exch. scaling(SCF)               ...  0.720
   GGA exch. scaling (CP-SCF)           ...  0.720
   GGA corr. scaling (SCF)              ...  0.810
   GGA corr. scaling (CP-SCF)           ...  0.810

CP-SCF GRID
-----------

General Integration Accuracy     IntAcc      ... 3.467
Radial Grid Type                 RadialGrid  ... OptM3 with GC (2021)
Angular Grid (max. ang.)         AngularGrid ... 1 (Lebedev-50)
Angular grid pruning method      GridPruning ... 4 (adaptive)
Weight generation scheme         WeightScheme... Becke
Basis function cutoff            BFCut       ... 1.0000e-10
Integration weight cutoff        WCut        ... 1.0000e-14
Angular grids for H and He will be reduced by one unit
Partially contracted basis set               ... off
Rotationally invariant grid construction     ... off

Total number of grid points                  ...     2340
Total number of batches                      ...       38
Average number of points per batch           ...       61
Average number of grid points per atom       ...      585

CP-SCF GRIDX
------------

General Integration Accuracy     IntAcc      ... 3.067
Radial Grid Type                 RadialGrid  ... OptM3 with GC (2021)
Angular Grid (max. ang.)         AngularGrid ... 1 (Lebedev-50)
Angular grid pruning method      GridPruning ... 4 (adaptive)
Weight generation scheme         WeightScheme... Becke
Basis function cutoff            BFCut       ... 1.0000e-10
Integration weight cutoff        WCut        ... 1.0000e-14
Angular grids for H and He will be reduced by one unit
Partially contracted basis set               ... on
Rotationally invariant grid construction     ... off

Total number of grid points                  ...     1071
Total number of batches                      ...       20
Average number of points per batch           ...       53
Average number of grid points per atom       ...      268

Memory available               ... 967.7 MB
Memory needed per perturbation ...   0.4 MB
Perturbations treated per batch... 3
Number of batches              ... 1
     CP-SCF ITERATION   0:   7.3244e-02 (   0.1 sec   0/  3 done)
     CP-SCF ITERATION   1:   2.6278e-03 (   0.1 sec   1/  3 done)
     CP-SCF ITERATION   2:   1.9187e-04 (   0.1 sec   3/  3 done)
                    *** THE CP-SCF HAS CONVERGED ***

Forming final perturbed densities           ... done
Transforming perturbed density to AO basis  ... done

 Raw HFC matrix (all values in MHz): 
 -----------------------------------
               -27.1583             -16.6574               0.6686
               -16.6572            -102.4367              -4.4518
                 0.6687              -4.4518             -60.2299

 A(FC)         -63.2899             -63.2899             -63.2899
 A(SD)          39.7084               3.3785             -43.0869
 A(ORB+DIA)      0.0123              -0.0006               0.0331    A(PC) =   0.0149
 A(ORB)          0.0069               0.0006               0.0314    A(PC) =   0.0130
 A(DIA)          0.0055              -0.0012               0.0016    A(PC) =   0.0020
             ----------           ----------           ----------
 A(Tot)        -23.5691             -59.9120            -106.3437    A(iso)=  -63.2749
 Orientation: 
  X           0.9770077            0.0611043            0.2042600
  Y          -0.2087873            0.0802175            0.9746656
  Z           0.0431710           -0.9949027            0.0911309

Notes:  (1) The A matrix conforms to the "SAI" spin Hamiltonian convention.
        (2) Tensor is right-handed.

 -----------------------------------------------------------
 Nucleus   0C : A:ISTP=   13 I=  0.5 P=134.1903 MHz/au**3
                Q:ISTP=   13 I=  0.5 Q=  0.0000 barn     
 -----------------------------------------------------------
 Solving for nuclear perturbation:
Forming RHS of the CP-SCF equations         ... 
Calc. nucleus orbit integrals (SHARK)       ... done

------------------------------------------------------------------------------
                           ORCA CP-SCF CALCULATION
------------------------------------------------------------------------------

Input orbitals are from        ... /home/rwth0701/scratch/cs681498/orcajob__30556596-jyVH/19485.gbw
Input Perturbation             ... /home/rwth0701/scratch/cs681498/orcajob__30556596-jyVH/19485.pin.tmp
Wavefunction output            ... /home/rwth0701/scratch/cs681498/orcajob__30556596-jyVH/19485.pout.tmp
Perturbation mode              ... Imaginary perturbation
Solver                         ... POPLE
Max. number of iterations      ... 64
Convergence tolerance          ... 1.000e-03
Integral handling              ... Direct
DFT GridXC                     ... 1
COSX GridX                     ... 1
COSX IntAccX                   ... 3.067
COSX Algorithm                 ... Auto
Number of perturbations        ... 3
Number of operators            ... 2
Orbital ranges used for CP-SCF:
 Operator 0:  Orbitals   0...  4  to   5... 72
 Operator 1:  Orbitals   0...  3  to   4... 72
Variables per perturbation     ... 616
DFT calculation                         ... on
XC functional terms                     ... off
Hybrid DFT                              ... on
   Exchange mixing (SCF)                ...  0.200
   Exchange mixing (CP-SCF)             ...  0.200
   GGA exch. scaling(SCF)               ...  0.720
   GGA exch. scaling (CP-SCF)           ...  0.720
   GGA corr. scaling (SCF)              ...  0.810
   GGA corr. scaling (CP-SCF)           ...  0.810

CP-SCF GRID
-----------

General Integration Accuracy     IntAcc      ... 3.467
Radial Grid Type                 RadialGrid  ... OptM3 with GC (2021)
Angular Grid (max. ang.)         AngularGrid ... 1 (Lebedev-50)
Angular grid pruning method      GridPruning ... 4 (adaptive)
Weight generation scheme         WeightScheme... Becke
Basis function cutoff            BFCut       ... 1.0000e-10
Integration weight cutoff        WCut        ... 1.0000e-14
Angular grids for H and He will be reduced by one unit
Partially contracted basis set               ... off
Rotationally invariant grid construction     ... off

Total number of grid points                  ...     2340
Total number of batches                      ...       38
Average number of points per batch           ...       61
Average number of grid points per atom       ...      585

CP-SCF GRIDX
------------

General Integration Accuracy     IntAcc      ... 3.067
Radial Grid Type                 RadialGrid  ... OptM3 with GC (2021)
Angular Grid (max. ang.)         AngularGrid ... 1 (Lebedev-50)
Angular grid pruning method      GridPruning ... 4 (adaptive)
Weight generation scheme         WeightScheme... Becke
Basis function cutoff            BFCut       ... 1.0000e-10
Integration weight cutoff        WCut        ... 1.0000e-14
Angular grids for H and He will be reduced by one unit
Partially contracted basis set               ... on
Rotationally invariant grid construction     ... off

Total number of grid points                  ...     1071
Total number of batches                      ...       20
Average number of points per batch           ...       53
Average number of grid points per atom       ...      268

Memory available               ... 967.6 MB
Memory needed per perturbation ...   0.4 MB
Perturbations treated per batch... 3
Number of batches              ... 1
     CP-SCF ITERATION   0:   1.1193e+00 (   0.1 sec   0/  3 done)
     CP-SCF ITERATION   1:   4.0378e-02 (   0.1 sec   0/  3 done)
     CP-SCF ITERATION   2:   2.9912e-03 (   0.1 sec   0/  3 done)
     CP-SCF ITERATION   3:   1.4283e-04 (   0.1 sec   3/  3 done)
                    *** THE CP-SCF HAS CONVERGED ***

Forming final perturbed densities           ... done
Transforming perturbed density to AO basis  ... done

 Raw HFC matrix (all values in MHz): 
 -----------------------------------
                 0.5211               0.8912             -12.9148
                 0.8912               2.0452             -19.6688
               -12.9148             -19.6688             239.0561

 A(FC)          80.6550              80.6550              80.6550
 A(SD)         -80.7083             -80.0219             160.7302
 A(ORB+DIA)     -0.1674              -0.1629              -0.0122    A(PC) =  -0.1142
 A(ORB)         -0.1678              -0.1633              -0.0121    A(PC) =  -0.1144
 A(DIA)          0.0004               0.0004              -0.0001    A(PC) =   0.0002
             ----------           ----------           ----------
 A(Tot)         -0.2207               0.4702             241.3730    A(iso)=   80.5408
 Orientation: 
  X          -0.9646486           -0.2580175            0.0536665
  Y          -0.2532607            0.9639175            0.0819878
  Z          -0.0728844            0.0654978           -0.9951874

Notes:  (1) The A matrix conforms to the "SAI" spin Hamiltonian convention.
        (2) Tensor is right-handed.


--------------------------------------------------------------------------------
----------------------------------------------------------------------------
                           ORCA EULER ANGLE PROGRAM
----------------------------------------------------------------------------

Only g-tensor available        -->  using g-tensor as reference tensor

Reference tensor               ...  g

g-tensor ordering              ...  |g_min> --> |gx>
                                    |g_mid> --> |gy>
                                    |g_max> --> |gz>

A- and EFG-tensor ordering     ...  the axes |Ax>, |Qx>, |Ay>, etc. are assigned
                                    such that the Euler rotation is minimal. You
                                    can find the respective eigenvalues as Ax,
                                    EFGx, Ay, etc. in the tables below.
                                    The relation of |Ax>, |Ay>,  etc. to Amin, Amid, etc.
                                    (as printed in the ORCA EPR/NMR CALCULATION Output)
                                    is obtained in the detailed printout.

Euler rotation around          ...  z - y - z
   First rotation              -->  by alpha around z
   Second rotation             -->  by beta around y'
   Third rotation              -->  by gamma around z''
   Positive / Negative angle   -->  clockwise / counterclockwise rotation

Plot EFG-tensors                    (-)
Plot HFC-tensors                    (-)
Detailed Printout                   (-)

-------------------------------------------------------------------------
          Euler rotation of hyperfine tensor to g-tensor
-------------------------------------------------------------------------

-------------------------------------------------------------------
 Atom  |   Alpha    Beta    Gamma   |   Ax       Ay       Az 
       |          [degrees]         |           [MHz]         
-------------------------------------------------------------------
  1H      -88.9     44.8     89.4     -65.03   -27.28  -102.67
  2H      -89.5     13.0     89.5     -66.15  -106.17   -28.66
  3H       88.2     21.6    -88.8     -59.91   -23.57  -106.34
  0C      -89.2     41.6     89.4     241.37     0.47    -0.22
-------------------------------------------------------------------


Maximum memory used throughout the entire EPRNMR-calculation: 67.6 MB

Timings for individual modules:

Sum of individual times         ...       30.310 sec (=   0.505 min)
GTO integral calculation        ...        6.293 sec (=   0.105 min)  20.8 %
Spin-Orbit-Coupling Matrices    ...        3.316 sec (=   0.055 min)  10.9 %
SCF iterations                  ...       13.052 sec (=   0.218 min)  43.1 %
EPR/NMR calculation             ...        7.649 sec (=   0.127 min)  25.2 %
                             ****ORCA TERMINATED NORMALLY****
TOTAL RUN TIME: 0 days 0 hours 0 minutes 33 seconds 379 msec
