4
# ORCA AIMD Position Step 0, t=0.00 fs, E_Pot=-39.82314971 Hartree, Unit is Angstrom
 C     12.6022894301     -0.6266926546     -7.1846322451
 H     12.3092559322     -1.4837953326     -6.4853588307
 H     13.1769622509      0.2068786471     -6.7587485437
 H     12.0584043831     -0.4595369654     -8.0963961825
4
# ORCA AIMD Position Step 1, t=0.50 fs, E_Pot=-39.82295338 Hartree, Unit is Angstrom
 C     12.5992103279     -0.6218671228     -7.1860006835
 H     12.3192417448     -1.4892676564     -6.4870689410
 H     13.1721290304      0.1998320538     -6.7623173628
 H     12.0563308933     -0.4518435801     -8.0897488147
4
# ORCA AIMD Position Step 2, t=1.00 fs, E_Pot=-39.82293827 Hartree, Unit is Angstrom
 C     12.5960985953     -0.6172865482     -7.1869908912
 H     12.3303345761     -1.4912997501     -6.4919514976
 H     13.1672634357      0.1922762901     -6.7661440645
 H     12.0537413962     -0.4444252676     -8.0841046310
4
# ORCA AIMD Position Step 3, t=1.50 fs, E_Pot=-39.82313423 Hartree, Unit is Angstrom
 C     12.5929458057     -0.6130123263     -7.1875997012
 H     12.3424133756     -1.4899247872     -6.4999939819
 H     13.1628614955      0.1849334946     -6.7698785280
 H     12.0503612862     -0.4372402883     -8.0798638317
4
# ORCA AIMD Position Step 4, t=2.00 fs, E_Pot=-39.82353270 Hartree, Unit is Angstrom
 C     12.5897399235     -0.6090861718     -7.1878504254
 H     12.3553013310     -1.4853997452     -6.5110110631
 H     13.1594261935      0.1785281779     -6.7731753037
 H     12.0460075734     -0.4302599490     -8.0772791789
4
# ORCA AIMD Position Step 5, t=2.50 fs, E_Pot=-39.82407108 Hartree, Unit is Angstrom
 C     12.5864679523     -0.6055223258     -7.1877923311
 H     12.3687694410     -1.4782163173     -6.5246387318
 H     13.1574112310      0.1737123112     -6.7757341760
 H     12.0406101639     -0.4234758600     -8.0764274462
4
# ORCA AIMD Position Step 6, t=3.00 fs, E_Pot=-39.82462207 Hartree, Unit is Angstrom
 C     12.5831195510     -0.6022993507     -7.1874978027
 H     12.3825496488     -1.4691141020     -6.5403358497
 H     13.1571596923      0.1709834144     -6.7773437133
 H     12.0342171475     -0.4169027571     -8.0771980627
4
# ORCA AIMD Position Step 7, t=3.50 fs, E_Pot=-39.82501226 Hartree, Unit is Angstrom
 C     12.5796922762     -0.5993551972     -7.1870569691
 H     12.3963383951     -1.4590755506     -6.5573865559
 H     13.1588497044      0.1706197148     -6.7779141137
 H     12.0269832301     -0.4105774790     -8.0793218558
4
# ORCA AIMD Position Step 8, t=4.00 fs, E_Pot=-39.82508465 Hartree, Unit is Angstrom
 C     12.5761943227     -0.5965865140     -7.1865706289
 H     12.4098212790     -1.4493012641     -6.5749321902
 H     13.1624627384      0.1726418004     -6.7774937900
 H     12.0191441750     -0.4045533495     -8.0824069160
4
# ORCA AIMD Position Step 9, t=4.50 fs, E_Pot=-39.82479391 Hartree, Unit is Angstrom
 C     12.5726449766     -0.5938560376     -7.1861412197
 H     12.4227014030     -1.4411344669     -6.5920343129
 H     13.1677831720      0.1768174687     -6.7762613782
 H     12.0109833819     -0.3988922012     -8.0859913464
4
# ORCA AIMD Position Step 10, t=5.00 fs, E_Pot=-39.82427509 Hartree, Unit is Angstrom
 C     12.5690719283     -0.5910089313     -7.1858618694
 H     12.4347345482     -1.4359205531     -6.6077800351
 H     13.1744299358      0.1827070454     -6.7744960110
 H     12.0027968683     -0.3936551894     -8.0895982802
4
# ORCA AIMD Position Step 11, t=5.50 fs, E_Pot=-39.82381113 Hartree, Unit is Angstrom
 C     12.5655067789     -0.5878963086     -7.1858045510
 H     12.4457590814     -1.4348062195     -6.6214162784
 H     13.1819097224      0.1897350351     -6.7725344266
 H     11.9948634419     -0.3888948478     -8.0927857473
4
# ORCA AIMD Position Step 12, t=6.00 fs, E_Pot=-39.82368071 Hartree, Unit is Angstrom
 C     12.5619791805     -0.5844014661     -7.1860079130
 H     12.4557291974     -1.4385172507     -6.6325011724
 H     13.1896818983      0.1972706933     -6.7707276085
 H     11.9874162717     -0.3846453098     -8.0951836499
4
# ORCA AIMD Position Step 13, t=6.50 fs, E_Pot=-39.82398254 Hartree, Unit is Angstrom
 C     12.5585143782     -0.5804603023     -7.1864714241
 H     12.4647025217     -1.4471865887     -6.6409848767
 H     13.1972121263      0.2046967570     -6.7694040571
 H     11.9806310848     -0.3809199336     -8.0965194142
4
# ORCA AIMD Position Step 14, t=7.00 fs, E_Pot=-39.82457364 Hartree, Unit is Angstrom
 C     12.5551321008     -0.5760701988     -7.1871561210
 H     12.4728178038     -1.4603088729     -6.6472122225
 H     13.2040201529      0.2114655936     -6.7688424910
 H     11.9746141869     -0.3777075158     -8.0966336553
4
# ORCA AIMD Position Step 15, t=7.50 fs, E_Pot=-39.82516896 Hartree, Unit is Angstrom
 C     12.5518477062     -0.5712846525     -7.1879934418
 H     12.4802536080     -1.4768393060     -6.6518297486
 H     13.2097107390      0.2171341037     -6.7692559459
 H     11.9693994643     -0.3749726881     -8.0954837322
4
# ORCA AIMD Position Step 16, t=8.00 fs, E_Pot=-39.82551092 Hartree, Unit is Angstrom
 C     12.5486737641     -0.5661979252     -7.1888983428
 H     12.4871891618     -1.4953936574     -6.6556420423
 H     13.2139923640      0.2213828598     -6.7707841823
 H     11.9649500654     -0.3726581802     -8.0931387040
4
# ORCA AIMD Position Step 17, t=8.50 fs, E_Pot=-39.82548469 Hartree, Unit is Angstrom
 C     12.5456209456     -0.5609266535     -7.1897824341
 H     12.4937775187     -1.5144724205     -6.6594694355
 H     13.2166873900      0.2240247927     -6.7734912481
 H     11.9611643400     -0.3706884272     -8.0897675605
4
# ORCA AIMD Position Step 18, t=9.00 fs, E_Pot=-39.82513196 Hartree, Unit is Angstrom
 C     12.5426977677     -0.5555940498     -7.1905642513
 H     12.5001336478     -1.5326464734     -6.6640428636
 H     13.2177366184      0.2250074070     -6.7773661390
 H     11.9578859461     -0.3689740746     -8.0856212972
4
# ORCA AIMD Position Step 19, t=9.50 fs, E_Pot=-39.82459550 Hartree, Unit is Angstrom
 C     12.5399093418     -0.5503191096     -7.1911759162
 H     12.5063341987     -1.5486782644     -6.6699454813
 H     13.2172000024      0.2244109001     -6.7823255388
 H     11.9549180359     -0.3674169949     -8.0810091813
4
# ORCA AIMD Position Step 20, t=10.00 fs, E_Pot=-39.82404794 Hartree, Unit is Angstrom
 C     12.5372555556     -0.5452105096     -7.1915668844
 H     12.5124237573     -1.5615833330     -6.6775922881
 H     13.2152538592      0.2224427568     -6.7882185692
 H     11.9520412973     -0.3659155799     -8.0762697566
4
# ORCA AIMD Position Step 21, t=10.50 fs, E_Pot=-39.82363873 Hartree, Unit is Angstrom
 C     12.5347294495     -0.5403640373     -7.1917058725
 H     12.5184199886     -1.5706455677     -6.6872323214
 H     13.2121826080      0.2194282249     -6.7948338712
 H     11.9490363773     -0.3643703461     -8.0717386285
4
# ORCA AIMD Position Step 22, t=11.00 fs, E_Pot=-39.82346556 Hartree, Unit is Angstrom
 C     12.5323152389     -0.5358598603     -7.1915814684
 H     12.5243299430     -1.5754277985     -6.6989644769
 H     13.2083667427      0.2157924652     -6.8019120001
 H     11.9457032041     -0.3626880630     -8.0677129745
4
# ORCA AIMD Position Step 23, t=11.50 fs, E_Pot=-39.82356661 Hartree, Unit is Angstrom
 C     12.5299885026     -0.5317614473     -7.1912022878
 H     12.5301489208     -1.5757574137     -6.7127482074
 H     13.2042591281      0.2120375308     -6.8091597225
 H     11.9418837216     -0.3607862005     -8.0644246320
4
# ORCA AIMD Position Step 24, t=12.00 fs, E_Pot=-39.82392146 Hartree, Unit is Angstrom
 C     12.5277173188     -0.5281119921     -7.1905961181
 H     12.5358662719     -1.5717270954     -6.7284142115
 H     13.2003491050      0.2087033634     -6.8162726745
 H     11.9374786192     -0.3585961023     -8.0620168802
4
# ORCA AIMD Position Step 25, t=12.50 fs, E_Pot=-39.82445346 Hartree, Unit is Angstrom
 C     12.5254644949     -0.5249295910     -7.1898075841
 H     12.5414769708     -1.5636978792     -6.7456799799
 H     13.1971147061      0.2063143339     -6.8229653774
 H     11.9324571772     -0.3560642035     -8.0605265944
4
# ORCA AIMD Position Step 26, t=13.00 fs, E_Pot=-39.82503245 Hartree, Unit is Angstrom
 C     12.5231916947     -0.5222012653     -7.1888950967
 H     12.5469875163     -1.5523112171     -6.7641561613
 H     13.1949670151      0.2053200361     -6.8290013315
 H     11.9268579947     -0.3531521976     -8.0598840317
4
# ORCA AIMD Position Step 27, t=13.50 fs, E_Pot=-39.82548774 Hartree, Unit is Angstrom
 C     12.5208647144     -0.5198777041     -7.1879268512
 H     12.5524161425     -1.5384982484     -6.7833492087
 H     13.1941961693      0.2060407068     -6.8342178846
 H     11.9207799945     -0.3498358979     -8.0599329410
4
# ORCA AIMD Position Step 28, t=14.00 fs, E_Pot=-39.82564584 Hartree, Unit is Angstrom
 C     12.5184574720     -0.5178701394     -7.1869759745
 H     12.5578027945     -1.5234721726     -6.8026808407
 H     13.1949288478      0.2086205990     -6.8385451702
 H     11.9143674105     -0.3461034235     -8.0604500189
4
# ORCA AIMD Position Step 29, t=14.50 fs, E_Pot=-39.82540111 Hartree, Unit is Angstrom
 C     12.5159546925     -0.5160525822     -7.1861152765
 H     12.5632149835     -1.5086833190     -6.8215186998
 H     13.1971097737      0.2130077573     -6.8420097562
 H     11.9077902891     -0.3419530921     -8.0611733118
4
# ORCA AIMD Position Step 30, t=15.00 fs, E_Pot=-39.82479658 Hartree, Unit is Angstrom
 C     12.5133525222     -0.5142718038     -7.1854114864
 H     12.5687499987     -1.4957126141     -6.8392273712
 H     13.2005124307      0.2189644097     -6.8447230592
 H     11.9012239844     -0.3373912147     -8.0618316953
4
# ORCA AIMD Position Step 31, t=15.50 fs, E_Pot=-39.82405555 Hartree, Unit is Angstrom
 C     12.5106574404     -0.5123660158     -7.1849189461
 H     12.5745295930     -1.4860892785     -6.8552400832
 H     13.2047760222      0.2261052131     -6.8468579091
 H     11.8948302159     -0.3324298531     -8.0621719334
4
# ORCA AIMD Position Step 32, t=16.00 fs, E_Pot=-39.82350489 Hartree, Unit is Angstrom
 C     12.5078846466     -0.5101898943     -7.1846735399
 H     12.5806807051     -1.4810505379     -6.8691362144
 H     13.2094585526      0.2339537084     -6.8486188959
 H     11.8887423242     -0.3270852307     -8.0619831756
4
# ORCA AIMD Position Step 33, t=16.50 fs, E_Pot=-39.82340098 Hartree, Unit is Angstrom
 C     12.5050562227     -0.5076406876     -7.1846875681
 H     12.5873147495     -1.4812904750     -6.8807177686
 H     13.2140913405      0.2419993536     -6.8502167073
 H     11.8830533891     -0.3213748231     -8.0611071148
4
# ORCA AIMD Position Step 34, t=17.00 fs, E_Pot=-39.82377340 Hartree, Unit is Angstrom
 C     12.5022000464     -0.5046760235     -7.1849485154
 H     12.5944957153     -1.4868078756     -6.8900337075
 H     13.2182332634      0.2497559819     -6.8518428045
 H     11.8778070738     -0.3153160344     -8.0594535217
4
# ORCA AIMD Position Step 35, t=17.50 fs, E_Pot=-39.82440971 Hartree, Unit is Angstrom
 C     12.4993492417     -0.5013176916     -7.1854228708
 H     12.6022097400     -1.4968963037     -6.8973480050
 H     13.2215017633      0.2567977845     -6.8536552448
 H     11.8730038950     -0.3089274799     -8.0570006962
4
# ORCA AIMD Position Step 36, t=18.00 fs, E_Pot=-39.82498995 Hartree, Unit is Angstrom
 C     12.4965398427     -0.4976409498     -7.1860616272
 H     12.6103742915     -1.5103052059     -6.9030853794
 H     13.2236035697      0.2627893788     -6.8557689885
 H     11.8685893559     -0.3022257464     -8.0537938067
4
# ORCA AIMD Position Step 37, t=18.50 fs, E_Pot=-39.82526081 Hartree, Unit is Angstrom
 C     12.4938086337     -0.4937553731     -7.1868095346
 H     12.6188379791     -1.5254774634     -6.9077352981
 H     13.2243436211      0.2674983880     -6.8582514011
 H     11.8644709534     -0.2952287767     -8.0499351211
4
# ORCA AIMD Position Step 38, t=19.00 fs, E_Pot=-39.82513331 Hartree, Unit is Angstrom
 C     12.4911898834     -0.4897846489     -7.1876120922
 H     12.6274076310     -1.5407974146     -6.9117824411
 H     13.2236322930      0.2708026203     -6.8611211911
 H     11.8605225978     -0.2879555713     -8.0455713439
4
# ORCA AIMD Position Step 39, t=19.50 fs, E_Pot=-39.82467852 Hartree, Unit is Angstrom
 C     12.4887122744     -0.4858507345     -7.1884210441
 H     12.6358730889     -1.5547790205     -6.9156570136
 H     13.2214855547      0.2726907908     -6.8643495057
 H     11.8565960044     -0.2804270785     -8.0408767884
4
# ORCA AIMD Position Step 40, t=20.00 fs, E_Pot=-39.82406286 Hartree, Unit is Angstrom
 C     12.4863963475     -0.4820639670     -7.1891978641
 H     12.6440281453     -1.5661786195     -6.9197097211
 H     13.2180207953      0.2732589605     -6.8678627975
 H     11.8525342130     -0.2726672642     -8.0360340872
4
# ORCA AIMD Position Step 41, t=20.50 fs, E_Pot=-39.82347487 Hartree, Unit is Angstrom
 C     12.4842527126     -0.4785181111     -7.1899156591
 H     12.6516854561     -1.5740447269     -6.9242046860
 H     13.2134484371      0.2727029475     -6.8715474651
 H     11.8481862897     -0.2647044344     -8.0312140043
4
# ORCA AIMD Position Step 42, t=21.00 fs, E_Pot=-39.82307222 Hartree, Unit is Angstrom
 C     12.4822812169     -0.4752884473     -7.1905600611
 H     12.6586837270     -1.5777253108     -6.9293207452
 H     13.2080574295      0.2713051537     -6.8752567443
 H     11.8434245477     -0.2565735116     -8.0265566407
4
# ORCA AIMD Position Step 43, t=21.50 fs, E_Pot=-39.82295249 Hartree, Unit is Angstrom
 C     12.4804710536     -0.4724297761     -7.1911290476
 H     12.6648968962     -1.5768710064     -6.9351579077
 H     13.2021953771      0.2694151313     -6.8788204053
 H     11.8381540286     -0.2483173165     -8.0221573929
4
# ORCA AIMD Position Step 44, t=22.00 fs, E_Pot=-39.82314364 Hartree, Unit is Angstrom
 C     12.4788012608     -0.4699775903     -7.1916319592
 H     12.6702410375     -1.5714085950     -6.9417519793
 H     13.1962511498      0.2674343062     -6.8820541114
 H     11.8323171896     -0.2399841186     -8.0180546020
4
# ORCA AIMD Position Step 45, t=22.50 fs, E_Pot=-39.82360252 Hartree, Unit is Angstrom
 C     12.4772434988     -0.4679432098     -7.1920884159
 H     12.6746743585     -1.5615480593     -6.9490703694
 H     13.1906089625      0.2657699860     -6.8847781886
 H     11.8259069326     -0.2316328634     -8.0142277886
4
# ORCA AIMD Position Step 46, t=23.00 fs, E_Pot=-39.82421867 Hartree, Unit is Angstrom
 C     12.4757645937     -0.4663112658     -7.1925261232
 H     12.6782050130     -1.5477819668     -6.9570184015
 H     13.1856147067      0.2648019743     -6.8868329548
 H     11.8189623230     -0.2233306505     -8.0106020664
4
# ORCA AIMD Position Step 47, t=23.50 fs, E_Pot=-39.82482603 Hartree, Unit is Angstrom
 C     12.4743296724     -0.4650358497     -7.1929783982
 H     12.6808980531     -1.5308935121     -6.9654409522
 H     13.1815376313      0.2648428495     -6.8880952401
 H     11.8115627389     -0.2151510135     -8.0070593749
4
# ORCA AIMD Position Step 48, t=24.00 fs, E_Pot=-39.82523160 Hartree, Unit is Angstrom
 C     12.4729051793     -0.4640374412     -7.1934816413
 H     12.6828852155     -1.5119585402     -6.9741292130
 H     13.1785366674      0.2661008097     -6.8884923116
 H     11.8038158521     -0.2071713554     -8.0034478866
4
# ORCA AIMD Position Step 49, t=24.50 fs, E_Pot=-39.82527155 Hartree, Unit is Angstrom
 C     12.4714613030     -0.4632031196     -7.1940721761
 H     12.6843640825     -1.4923269853     -6.9828231710
 H     13.1766438763      0.2686594323     -6.8880094979
 H     11.7958460414     -0.1994686624     -7.9996095542
4
# ORCA AIMD Position Step 50, t=25.00 fs, E_Pot=-39.82488869 Hartree, Unit is Angstrom
 C     12.4699737300     -0.4623915843     -7.1947834784
 H     12.6855943654     -1.4735587530     -6.9912300959
 H     13.1757622277      0.2724696429     -6.8866910055
 H     11.7877792613     -0.1921155782     -7.9953939195
4
# ORCA AIMD Position Step 51, t=25.50 fs, E_Pot=-39.82419825 Hartree, Unit is Angstrom
 C     12.4684251322     -0.4614453193     -7.1956430178
 H     12.6868771236     -1.4572948000     -6.9990525790
 H     13.1756826181      0.2773614805     -6.8846329621
 H     11.7797288198     -0.1851758879     -7.9906748331
4
# ORCA AIMD Position Step 52, t=26.00 fs, E_Pot=-39.82348323 Hartree, Unit is Angstrom
 C     12.4668069837     -0.4602101430     -7.1966688195
 H     12.6885145150     -1.4450553709     -7.0060287514
 H     13.1761148933      0.2830711367     -6.8819705891
 H     11.7717827090     -0.1787000939     -7.9853641847
4
# ORCA AIMD Position Step 53, t=26.50 fs, E_Pot=-39.82308055 Hartree, Unit is Angstrom
 C     12.4651218430     -0.4585593290     -7.1978660523
 H     12.6907524342     -1.4379935535     -7.0119760464
 H     13.1767272922      0.2892780880     -6.8788622876
 H     11.7639942335     -0.1727213625     -7.9794247815
4
# ORCA AIMD Position Step 54, t=27.00 fs, E_Pot=-39.82319799 Hartree, Unit is Angstrom
 C     12.4633856595     -0.4564168197     -7.1992249026
 H     12.6937210133     -1.4366587413     -7.0168326218
 H     13.1771836529      0.2956431257     -6.8754734563
 H     11.7563769365     -0.1672535289     -7.9728704006
4
# ORCA AIMD Position Step 55, t=27.50 fs, E_Pot=-39.82378895 Hartree, Unit is Angstrom
 C     12.4616290431     -0.4537686467     -7.2007205091
 H     12.6974023345     -1.4408884993     -7.0206747286
 H     13.1771686806      0.3018351859     -6.8719635189
 H     11.7488967587     -0.1622903429     -7.9657620477
4
# ORCA AIMD Position Step 56, t=28.00 fs, E_Pot=-39.82458248 Hartree, Unit is Angstrom
 C     12.4598942775     -0.4506635053     -7.2023157080
 H     12.7016219337     -1.4498386865     -7.0236952903
 H     13.1764231993      0.3075688851     -6.8684724680
 H     11.7414811524     -0.1578065188     -7.9582100086
4
# ORCA AIMD Position Step 57, t=28.50 fs, E_Pot=-39.82524408 Hartree, Unit is Angstrom
 C     12.4582307069     -0.4471981558     -7.2039661029
 H     12.7060863330     -1.4621670868     -7.0261661340
 H     13.1747548845      0.3126184073     -6.8651139015
 H     11.7340259403     -0.1537623265     -7.9503581069
4
# ORCA AIMD Position Step 58, t=29.00 fs, E_Pot=-39.82554253 Hartree, Unit is Angstrom
 C     12.4566883772     -0.4434974219     -7.2056259808
 H     12.7104417672     -1.4762823978     -7.0283920022
 H     13.1720483543      0.3168317425     -6.8619676107
 H     11.7264022584     -0.1501073131     -7.9423666186
4
# ORCA AIMD Position Step 59, t=29.50 fs, E_Pot=-39.82542600 Hartree, Unit is Angstrom
 C     12.4553112300     -0.4396939746     -7.2072539569
 H     12.7143273522     -1.4905782429     -7.0306633081
 H     13.1682667698      0.3201338370     -6.8590787012
 H     11.7184827642     -0.1467901342     -7.9343932126
4
# ORCA AIMD Position Step 60, t=30.00 fs, E_Pot=-39.82499842 Hartree, Unit is Angstrom
 C     12.4541321950     -0.4359137820     -7.2088170975
 H     12.7174197878     -1.5036041256     -7.0332291288
 H     13.1634513159      0.3225297705     -6.8564549456
 H     11.7101557327     -0.1437637034     -7.9265735534
4
# ORCA AIMD Position Step 61, t=30.50 fs, E_Pot=-39.82444591 Hartree, Unit is Angstrom
 C     12.4531700080     -0.4322672655     -7.2102935133
 H     12.7194588314     -1.5141624902     -7.0362827907
 H     13.1577158505      0.3241023390     -6.8540672332
 H     11.7013426549     -0.1409906685     -7.9190044511
4
# ORCA AIMD Position Step 62, t=31.00 fs, E_Pot=-39.82396223 Hartree, Unit is Angstrom
 C     12.4524278705     -0.4288450696     -7.2116734545
 H     12.7202583258     -1.5213486736     -7.0399580280
 H     13.1512375816      0.3250053863     -6.8518521325
 H     11.6920123882     -0.1384469482     -7.9117321345
4
# ORCA AIMD Position Step 63, t=31.50 fs, E_Pot=-39.82369771 Hartree, Unit is Angstrom
 C     12.4518936245     -0.4257165109     -7.2129590202
 H     12.7197070208     -1.5245548022     -7.0443306717
 H     13.1442429184      0.3254511234     -6.8497181223
 H     11.6821923852     -0.1361236487     -7.9047477990
4
# ORCA AIMD Position Step 64, t=32.00 fs, E_Pot=-39.82373275 Hartree, Unit is Angstrom
 C     12.4515414183     -0.4229284274     -7.2141627471
 H     12.7177687993     -1.5234708186     -7.0494217410
 H     13.1369903676      0.3256942397     -6.8475529723
 H     11.6719658218     -0.1340240200     -7.8979939356
4
# ORCA AIMD Position Step 65, t=32.50 fs, E_Pot=-39.82407119 Hartree, Unit is Angstrom
 C     12.4513344682     -0.4205057578     -7.2153059794
 H     12.7144780529     -1.5180612265     -7.0552064017
 H     13.1297484744      0.3260117996     -6.8452322306
 H     11.6614655432     -0.1321599743     -7.8913662396
4
# ORCA AIMD Position Step 66, t=33.00 fs, E_Pot=-39.82464190 Hartree, Unit is Angstrom
 C     12.4512281161     -0.4184492680     -7.2164168288
 H     12.7099416564     -1.5085721839     -7.0616169818
 H     13.1227719733      0.3266781080     -6.8426295531
 H     11.6508596914     -0.1305472048     -7.8847245014
4
# ORCA AIMD Position Step 67, t=33.50 fs, E_Pot=-39.82530900 Hartree, Unit is Angstrom
 C     12.4511734362     -0.4167329415     -7.2175258888
 H     12.7043341749     -1.4955341600     -7.0685416464
 H     13.1162744451      0.3279303908     -6.8396387299
 H     11.6403410428     -0.1291994976     -7.8779229065
4
# ORCA AIMD Position Step 68, t=34.00 fs, E_Pot=-39.82589238 Hartree, Unit is Angstrom
 C     12.4511207620     -0.4153020674     -7.2186640585
 H     12.6978995427     -1.4797662606     -7.0758296434
 H     13.1104071809      0.3299443032     -6.8361836994
 H     11.6301045328     -0.1281227852     -7.8708206370
4
# ORCA AIMD Position Step 69, t=34.50 fs, E_Pot=-39.82620757 Hartree, Unit is Angstrom
 C     12.4510227709     -0.4140721837     -7.2198600025
 H     12.6909484622     -1.4623721739     -7.0832955661
 H     13.1052442047      0.3328126359     -6.8322292375
 H     11.6203281058     -0.1273104392     -7.8632971884
4
# ORCA AIMD Position Step 70, t=35.00 fs, E_Pot=-39.82612782 Hartree, Unit is Angstrom
 C     12.4508370960     -0.4129310359     -7.2211379905
 H     12.6838492511     -1.4447086785     -7.0907271625
 H     13.1007773575      0.3365339927     -6.8277866376
 H     11.6111555579     -0.1267399404     -7.8552646706
4
# ORCA AIMD Position Step 71, t=35.50 fs, E_Pot=-39.82565494 Hartree, Unit is Angstrom
 C     12.4505286649     -0.4117455641     -7.2225160941
 H     12.6770075777     -1.4283051510     -7.0978989331
 H     13.0969225407      0.3410138985     -6.8229130905
 H     11.6026824830     -0.1263710376     -7.8466764307
4
# ORCA AIMD Position Step 72, t=36.00 fs, E_Pot=-39.82495933 Hartree, Unit is Angstrom
 C     12.4500720971     -0.4103753793     -7.2240046449
 H     12.6708317201     -1.4147165047     -7.1045927776
 H     13.0935357849      0.3460782115     -6.8177048265
 H     11.5949461282     -0.1261454081     -7.8375317442
4
# ORCA AIMD Position Step 73, t=36.50 fs, E_Pot=-39.82433938 Hartree, Unit is Angstrom
 C     12.4494543078     -0.4086923658     -7.2256049499
 H     12.6656845084     -1.4053112617     -7.1106242920
 H     13.0904357521      0.3514961353     -6.8122854342
 H     11.5879197337     -0.1259878152     -7.8278765583
4
# ORCA AIMD Position Step 74, t=37.00 fs, E_Pot=-39.82408673 Hartree, Unit is Angstrom
 C     12.4486767626     -0.4066029262     -7.2273083339
 H     12.6618305466     -1.4010335579     -7.1158683138
 H     13.0874302211      0.3570097545     -6.8067917773
 H     11.5815119152     -0.1258084551     -7.8178034049
4
# ORCA AIMD Position Step 75, t=37.50 fs, E_Pot=-39.82432339 Hartree, Unit is Angstrom
 C     12.4477563650     -0.4040667094     -7.2290966406
 H     12.6593938375     -1.4022010767     -7.1202779271
 H     13.0843372376      0.3623608147     -6.8013602643
 H     11.5755774533     -0.1255087593     -7.8074400724
4
# ORCA AIMD Position Step 76, t=38.00 fs, E_Pot=-39.82492884 Hartree, Unit is Angstrom
 C     12.4467256040     -0.4011032483     -7.2309439179
 H     12.6583470297     -1.4084407083     -7.1238915309
 H     13.0809969757      0.3673101929     -6.7961131702
 H     11.5699146709     -0.1249864472     -7.7969360282
4
# ORCA AIMD Position Step 77, t=38.50 fs, E_Pot=-39.82561480 Hartree, Unit is Angstrom
 C     12.4456265721     -0.3977872501     -7.2328194431
 H     12.6585257872     -1.4187636827     -7.1268134973
 H     13.0772954972      0.3716654093     -6.7911488717
 H     11.5642987849     -0.1241444076     -7.7864553872
4
# ORCA AIMD Position Step 78, t=39.00 fs, E_Pot=-39.82608715 Hartree, Unit is Angstrom
 C     12.4445058987     -0.3942317840     -7.2346918893
 H     12.6596726882     -1.4317677695     -7.1291931422
 H     13.0731674270      0.3752899514     -6.7865335308
 H     11.5584958011     -0.1228984450     -7.7761565885
4
# ORCA AIMD Position Step 79, t=39.50 fs, E_Pot=-39.82617991 Hartree, Unit is Angstrom
 C     12.4434076747     -0.3905678166     -7.2365330008
 H     12.6614853194     -1.4458750542     -7.1311962832
 H     13.0685973192      0.3781063492     -6.7823009585
 H     11.5522972911     -0.1211864246     -7.7661772508
4
# ORCA AIMD Position Step 80, t=40.00 fs, E_Pot=-39.82589520 Hartree, Unit is Angstrom
 C     12.4423678012     -0.3869259175     -7.2383209382
 H     12.6636603269     -1.4595460069     -7.1329842546
 H     13.0636186813      0.3800987029     -6.7784498998
 H     11.5455444919     -0.1189744568     -7.7566181033
4
# ORCA AIMD Position Step 81, t=40.50 fs, E_Pot=-39.82536243 Hartree, Unit is Angstrom
 C     12.4414099696     -0.3834233644     -7.2400422007
 H     12.6659232445     -1.4714256397     -7.1346999098
 H     13.0583089671      0.3813094160     -6.7749457824
 H     11.5381511696     -0.1162606909     -7.7475324017
4
# ORCA AIMD Position Step 82, t=41.00 fs, E_Pot=-39.82476594 Hartree, Unit is Angstrom
 C     12.4405437147     -0.3801568405     -7.2416922155
 H     12.6680451042     -1.4804227012     -7.1364608193
 H     13.0527816582      0.3818322076     -6.7717249195
 H     11.5301179593     -0.1130758154     -7.7389215287
4
# ORCA AIMD Position Step 83, t=41.50 fs, E_Pot=-39.82428092 Hartree, Unit is Angstrom
 C     12.4397644279     -0.3771992646     -7.2432747248
 H     12.6698494423     -1.4857397035     -7.1383574506
 H     13.0471757765      0.3818016639     -6.7687011219
 H     11.5215355921     -0.1094802486     -7.7307374989
4
# ORCA AIMD Position Step 84, t=42.00 fs, E_Pot=-39.82403277 Hartree, Unit is Angstrom
 C     12.4390549829     -0.3745989190     -7.2448002329
 H     12.6712139437     -1.4868754734     -7.1404540184
 H     13.0416433035      0.3813797055     -6.7657745281
 H     11.5125764672     -0.1055585310     -7.7228917544
4
# ORCA AIMD Position Step 85, t=42.50 fs, E_Pot=-39.82407823 Hartree, Unit is Angstrom
 C     12.4383883089     -0.3723794607     -7.2462836379
 H     12.6720691915     -1.4836152591     -7.1427894087
 H     13.0363349885      0.3807384164     -6.7628439541
 H     11.5034795213     -0.1014121186     -7.7152700751
4
# ORCA AIMD Position Step 86, t=43.00 fs, E_Pot=-39.82439982 Hartree, Unit is Angstrom
 C     12.4377312812     -0.3705396528     -7.2477416477
 H     12.6723990294     -1.4760297497     -7.1453784644
 H     13.0313870533      0.3800451879     -6.7598172903
 H     11.4945169473     -0.0971489420     -7.7077516225
4
# ORCA AIMD Position Step 87, t=43.50 fs, E_Pot=-39.82490903 Hartree, Unit is Angstrom
 C     12.4370471512     -0.3690529191     -7.2491920983
 H     12.6722457039     -1.4644714097     -7.1482175811
 H     13.0269095029      0.3794491271     -6.7566157497
 H     11.4859719607     -0.0928790192     -7.7002071571
4
# ORCA AIMD Position Step 88, t=44.00 fs, E_Pot=-39.82546018 Hartree, Unit is Angstrom
 C     12.4362993133     -0.3678667350     -7.2506500930
 H     12.6717066089     -1.4495718365     -7.1512800453
 H     13.0229728710      0.3790605972     -6.7531935239
 H     11.4781105662     -0.0887040373     -7.6925300009
4
# ORCA AIMD Position Step 89, t=44.50 fs, E_Pot=-39.82587717 Hartree, Unit is Angstrom
 C     12.4354532706     -0.3669022299     -7.2521275141
 H     12.6709395498     -1.4322424502     -7.1545195493
 H     13.0196027478      0.3789432246     -6.7495397604
 H     11.4711584331     -0.0847134501     -7.6846363432
4
# ORCA AIMD Position Step 90, t=45.00 fs, E_Pot=-39.82600094 Hartree, Unit is Angstrom
 C     12.4344782112     -0.3660557057     -7.2536317931
 H     12.6701619682     -1.4136629864     -7.1578688662
 H     13.0167830230      0.3791141583     -6.7456804479
 H     11.4652796564     -0.0809780532     -7.6764793838
4
# ORCA AIMD Position Step 91, t=45.50 fs, E_Pot=-39.82575284 Hartree, Unit is Angstrom
 C     12.4333484887     -0.3652033115     -7.2551656896
 H     12.6696442718     -1.3952293336     -7.1612453354
 H     13.0144590391      0.3795453169     -6.7416754375
 H     11.4605625473     -0.0775475619     -7.6680495551
4
# ORCA AIMD Position Step 92, t=46.00 fs, E_Pot=-39.82519160 Hartree, Unit is Angstrom
 C     12.4320452002     -0.3642104926     -7.2567271152
 H     12.6696910725     -1.3784517592     -7.1645593081
 H     13.0125470362      0.3801722905     -6.7376111791
 H     11.4570100058     -0.0744485141     -7.6593755569
4
# ORCA AIMD Position Step 93, t=46.50 fs, E_Pot=-39.82452333 Hartree, Unit is Angstrom
 C     12.4305584311     -0.3629471409     -7.2583088782
 H     12.6706058657     -1.3647912780     -7.1677263727
 H     13.0109481394      0.3809093453     -6.7335899545
 H     11.4545339482     -0.0716822090     -7.6505260231
4
# ORCA AIMD Position Step 94, t=47.00 fs, E_Pot=-39.82402946 Hartree, Unit is Angstrom
 C     12.4288902368     -0.3613060398     -7.2598986696
 H     12.6726433630     -1.3554471892     -7.1706882130