Job execution start: Mon Oct 24 18:42:50 CEST 2022
Shared library path: /home/cs681498/orca:/opt/MPI/openmpi-4.1.1/linux/gcc_4.8.5/lib:/opt/MPI/openmpi-4.1.1/linux/gcc_4.8.5/lib/lib32
Slurm Job ID is: 30556388
Slurm Job name is: 11448
ncm0885

                                 *****************
                                 * O   R   C   A *
                                 *****************

                                            #,                                       
                                            ###                                      
                                            ####                                     
                                            #####                                    
                                            ######                                   
                                           ########,                                 
                                     ,,################,,,,,                         
                               ,,#################################,,                 
                          ,,##########################################,,             
                       ,#########################################, ''#####,          
                    ,#############################################,,   '####,        
                  ,##################################################,,,,####,       
                ,###########''''           ''''###############################       
              ,#####''   ,,,,##########,,,,          '''####'''          '####       
            ,##' ,,,,###########################,,,                        '##       
           ' ,,###''''                  '''############,,,                           
         ,,##''                                '''############,,,,        ,,,,,,###''
      ,#''                                            '''#######################'''  
     '                                                          ''''####''''         
             ,#######,   #######,   ,#######,      ##                                
            ,#'     '#,  ##    ##  ,#'     '#,    #''#        ######   ,####,        
            ##       ##  ##   ,#'  ##            #'  '#       #        #'  '#        
            ##       ##  #######   ##           ,######,      #####,   #    #        
            '#,     ,#'  ##    ##  '#,     ,#' ,#      #,         ##   #,  ,#        
             '#######'   ##     ##  '#######'  #'      '#     #####' # '####'        



                  #######################################################
                  #                        -***-                        #
                  #          Department of theory and spectroscopy      #
                  #    Directorship and core code : Frank Neese         #
                  #        Max Planck Institute fuer Kohlenforschung    #
                  #                Kaiser Wilhelm Platz 1               #
                  #                 D-45470 Muelheim/Ruhr               #
                  #                      Germany                        #
                  #                                                     #
                  #                  All rights reserved                #
                  #                        -***-                        #
                  #######################################################


                         Program Version 5.0.3 -  RELEASE  -


 With contributions from (in alphabetic order):
   Daniel Aravena         : Magnetic Suceptibility
   Michael Atanasov       : Ab Initio Ligand Field Theory (pilot matlab implementation)
   Alexander A. Auer      : GIAO ZORA, VPT2 properties, NMR spectrum
   Ute Becker             : Parallelization
   Giovanni Bistoni       : ED, misc. LED, open-shell LED, HFLD
   Martin Brehm           : Molecular dynamics
   Dmytro Bykov           : SCF Hessian
   Vijay G. Chilkuri      : MRCI spin determinant printing, contributions to CSF-ICE
   Dipayan Datta          : RHF DLPNO-CCSD density
   Achintya Kumar Dutta   : EOM-CC, STEOM-CC
   Dmitry Ganyushin       : Spin-Orbit,Spin-Spin,Magnetic field MRCI
   Miquel Garcia          : C-PCM and meta-GGA Hessian, CC/C-PCM, Gaussian charge scheme
   Yang Guo               : DLPNO-NEVPT2, F12-NEVPT2, CIM, IAO-localization
   Andreas Hansen         : Spin unrestricted coupled pair/coupled cluster methods
   Benjamin Helmich-Paris : MC-RPA, TRAH-SCF, COSX integrals
   Lee Huntington         : MR-EOM, pCC
   Robert Izsak           : Overlap fitted RIJCOSX, COSX-SCS-MP3, EOM
   Marcus Kettner         : VPT2
   Christian Kollmar      : KDIIS, OOCD, Brueckner-CCSD(T), CCSD density, CASPT2, CASPT2-K
   Simone Kossmann        : Meta GGA functionals, TD-DFT gradient, OOMP2, MP2 Hessian
   Martin Krupicka        : Initial AUTO-CI
   Lucas Lang             : DCDCAS
   Marvin Lechner         : AUTO-CI (C++ implementation), FIC-MRCC
   Dagmar Lenk            : GEPOL surface, SMD
   Dimitrios Liakos       : Extrapolation schemes; Compound Job, initial MDCI parallelization
   Dimitrios Manganas     : Further ROCIS development; embedding schemes
   Dimitrios Pantazis     : SARC Basis sets
   Anastasios Papadopoulos: AUTO-CI, single reference methods and gradients
   Taras Petrenko         : DFT Hessian,TD-DFT gradient, ASA, ECA, R-Raman, ABS, FL, XAS/XES, NRVS
   Peter Pinski           : DLPNO-MP2, DLPNO-MP2 Gradient
   Christoph Reimann      : Effective Core Potentials
   Marius Retegan         : Local ZFS, SOC
   Christoph Riplinger    : Optimizer, TS searches, QM/MM, DLPNO-CCSD(T), (RO)-DLPNO pert. Triples
   Tobias Risthaus        : Range-separated hybrids, TD-DFT gradient, RPA, STAB
   Michael Roemelt        : Original ROCIS implementation
   Masaaki Saitow         : Open-shell DLPNO-CCSD energy and density
   Barbara Sandhoefer     : DKH picture change effects
   Avijit Sen             : IP-ROCIS
   Kantharuban Sivalingam : CASSCF convergence, NEVPT2, FIC-MRCI
   Bernardo de Souza      : ESD, SOC TD-DFT
   Georgi Stoychev        : AutoAux, RI-MP2 NMR, DLPNO-MP2 response
   Willem Van den Heuvel  : Paramagnetic NMR
   Boris Wezisla          : Elementary symmetry handling
   Frank Wennmohs         : Technical directorship


 We gratefully acknowledge several colleagues who have allowed us to
 interface, adapt or use parts of their codes:
   Stefan Grimme, W. Hujo, H. Kruse, P. Pracht,  : VdW corrections, initial TS optimization,
                  C. Bannwarth, S. Ehlert          DFT functionals, gCP, sTDA/sTD-DF
   Ed Valeev, F. Pavosevic, A. Kumar             : LibInt (2-el integral package), F12 methods
   Garnet Chan, S. Sharma, J. Yang, R. Olivares  : DMRG
   Ulf Ekstrom                                   : XCFun DFT Library
   Mihaly Kallay                                 : mrcc  (arbitrary order and MRCC methods)
   Jiri Pittner, Ondrej Demel                    : Mk-CCSD
   Frank Weinhold                                : gennbo (NPA and NBO analysis)
   Christopher J. Cramer and Donald G. Truhlar   : smd solvation model
   Lars Goerigk                                  : TD-DFT with DH, B97 family of functionals
   V. Asgeirsson, H. Jonsson                     : NEB implementation
   FAccTs GmbH                                   : IRC, NEB, NEB-TS, DLPNO-Multilevel, CI-OPT
                                                   MM, QMMM, 2- and 3-layer-ONIOM, Crystal-QMMM,
                                                   LR-CPCM, SF, NACMEs, symmetry and pop. for TD-DFT,
                                                   nearIR, NL-DFT gradient (VV10), updates on ESD,
                                                   ML-optimized integration grids
   S Lehtola, MJT Oliveira, MAL Marques          : LibXC Library
   Liviu Ungur et al                             : ANISO software


 Your calculation uses the libint2 library for the computation of 2-el integrals
 For citations please refer to: http://libint.valeyev.net

 Your ORCA version has been built with support for libXC version: 5.1.0
 For citations please refer to: https://tddft.org/programs/libxc/

 This ORCA versions uses:
   CBLAS   interface :  Fast vector & matrix operations
   LAPACKE interface :  Fast linear algebra routines
   SCALAPACK package :  Parallel linear algebra routines
   Shared memory     :  Shared parallel matrices
   BLAS/LAPACK       :  OpenBLAS 0.3.15  USE64BITINT DYNAMIC_ARCH NO_AFFINITY SkylakeX SINGLE_THREADED
        Core in use  :  SkylakeX
   Copyright (c) 2011-2014, The OpenBLAS Project


================================================================================

----- Orbital basis set information -----
Your calculation utilizes the basis: EPR-III
   V. Barone, in Recent Advances in Density Functional Methods, Part 1 (ed. D. P. Chong), World Scientific, Singapore, 1995, p. 287.
   N. Rega, M. Cossi and V. Barone, J. Chem. Phys. 105, 11060 (1996).

----- AuxJ basis set information -----
Your calculation utilizes the AutoAux generation procedure.
  G. L. Stoychev, A. A. Auer, F. Neese, J. Chem. Theory Comput. 13, 554 (2017)

----- AuxC basis set information -----
Your calculation utilizes the AutoAux generation procedure.
  G. L. Stoychev, A. A. Auer, F. Neese, J. Chem. Theory Comput. 13, 554 (2017)

----- AuxJK basis set information -----
Your calculation utilizes the AutoAux generation procedure.
  G. L. Stoychev, A. A. Auer, F. Neese, J. Chem. Theory Comput. 13, 554 (2017)

================================================================================
                                        WARNINGS
                       Please study these warnings very carefully!
================================================================================


WARNING: your system is open-shell and RHF/RKS was chosen
  ===> : WILL SWITCH to UHF/UKS


INFO   : the flag for use of the SHARK integral package has been found!

================================================================================
                                       INPUT FILE
================================================================================
NAME = /home/rwth0701/scratch/cs681498/orcajob__30556388-4Vua/11448.inp
|  1> !B3LYP EPR-III Autoaux
|  2> !PAL4
|  3> 
|  4> * xyz 0 2
|  5>  C    -47.0459887010    -67.9122575264    -22.4238701787
|  6>  H    -47.8002488720    -68.6810819481    -22.3848760518
|  7>  H    -45.9377515644    -68.0013540573    -22.5209437194
|  8>  H    -47.3327095891    -66.8756960277    -22.2951163509
|  9> *
| 10> 
| 11> %EPRNMR
| 12>         GTENSOR   TRUE
| 13>         NUCLEI    = ALL H {AISO, ADIP, AORB}
| 14>         NUCLEI    = ALL C {AISO, ADIP, AORB}
| 15> END
| 16> 
| 17> 
| 18>                          ****END OF INPUT****
================================================================================

                       ****************************
                       * Single Point Calculation *
                       ****************************

---------------------------------
CARTESIAN COORDINATES (ANGSTROEM)
---------------------------------
  C    -47.045989  -67.912258  -22.423870
  H    -47.800249  -68.681082  -22.384876
  H    -45.937752  -68.001354  -22.520944
  H    -47.332710  -66.875696  -22.295116

----------------------------
CARTESIAN COORDINATES (A.U.)
----------------------------
  NO LB      ZA    FRAG     MASS         X           Y           Z
   0 C     6.0000    0    12.011  -88.904034  -128.335568  -42.374974
   1 H     1.0000    0     1.008  -90.329380  -129.788435  -42.301285
   2 H     1.0000    0     1.008  -86.809770  -128.503936  -42.558416
   3 H     1.0000    0     1.008  -89.445858  -126.376751  -42.131664

--------------------------------
INTERNAL COORDINATES (ANGSTROEM)
--------------------------------
 C      0   0   0     0.000000000000     0.00000000     0.00000000
 H      1   0   0     1.077738344355     0.00000000     0.00000000
 H      1   2   0     1.116042568660   129.87814844     0.00000000
 H      1   2   3     1.083164879616   119.54576345   184.27648798

---------------------------
INTERNAL COORDINATES (A.U.)
---------------------------
 C      0   0   0     0.000000000000     0.00000000     0.00000000
 H      1   0   0     2.036630314856     0.00000000     0.00000000
 H      1   2   0     2.109014808566   129.87814844     0.00000000
 H      1   2   3     2.046884980356   119.54576345   184.27648798

---------------------
BASIS SET INFORMATION
---------------------
There are 2 groups of distinct atoms

 Group   1 Type C   : 12s8p2d1f contracted to 8s5p2d1f pattern {51111111/41111/11/1}
 Group   2 Type H   : 7s2p contracted to 5s2p pattern {31111/11}

Atom   0C    basis set group =>   1
Atom   1H    basis set group =>   2
Atom   2H    basis set group =>   2
Atom   3H    basis set group =>   2
---------------------------------
AUXILIARY/J BASIS SET INFORMATION
---------------------------------
There are 2 groups of distinct atoms

 Group   1 Type C   : 20s17p16d8f3g contracted to 20s17p16d8f3g pattern {11111111111111111111/11111111111111111/1111111111111111/11111111/111}
 Group   2 Type H   : 17s7p3d contracted to 17s7p3d pattern {11111111111111111/1111111/111}

Atom   0C    basis set group =>   1
Atom   1H    basis set group =>   2
Atom   2H    basis set group =>   2
Atom   3H    basis set group =>   2
---------------------------------
AUXILIARY/C BASIS SET INFORMATION
---------------------------------
There are 2 groups of distinct atoms

 Group   1 Type C   : 20s17p16d8f3g contracted to 20s17p16d8f3g pattern {11111111111111111111/11111111111111111/1111111111111111/11111111/111}
 Group   2 Type H   : 17s7p3d contracted to 17s7p3d pattern {11111111111111111/1111111/111}

Atom   0C    basis set group =>   1
Atom   1H    basis set group =>   2
Atom   2H    basis set group =>   2
Atom   3H    basis set group =>   2
----------------------------------
AUXILIARY/JK BASIS SET INFORMATION
----------------------------------
There are 2 groups of distinct atoms

 Group   1 Type C   : 20s17p16d8f3g contracted to 20s17p16d8f3g pattern {11111111111111111111/11111111111111111/1111111111111111/11111111/111}
 Group   2 Type H   : 17s7p3d contracted to 17s7p3d pattern {11111111111111111/1111111/111}

Atom   0C    basis set group =>   1
Atom   1H    basis set group =>   2
Atom   2H    basis set group =>   2
Atom   3H    basis set group =>   2


           ************************************************************
           *        Program running with 4 parallel MPI-processes     *
           *              working on a common directory               *
           ************************************************************
------------------------------------------------------------------------------
                           ORCA GTO INTEGRAL CALCULATION
                           -- RI-GTO INTEGRALS CHOSEN --
------------------------------------------------------------------------------
------------------------------------------------------------------------------
                   ___                                                        
                  /   \      - P O W E R E D   B Y -                         
                 /     \                                                     
                 |  |  |   _    _      __       _____    __    __             
                 |  |  |  | |  | |    /  \     |  _  \  |  |  /  |          
                  \  \/   | |  | |   /    \    | | | |  |  | /  /          
                 / \  \   | |__| |  /  /\  \   | |_| |  |  |/  /          
                |  |  |   |  __  | /  /__\  \  |    /   |      \           
                |  |  |   | |  | | |   __   |  |    \   |  |\   \          
                \     /   | |  | | |  |  |  |  | |\  \  |  | \   \       
                 \___/    |_|  |_| |__|  |__|  |_| \__\ |__|  \__/        
                                                                              
                      - O R C A' S   B I G   F R I E N D -                    
                                      &                                       
                       - I N T E G R A L  F E E D E R -                       
                                                                              
 v1 FN, 2020, v2 2021                                                         
------------------------------------------------------------------------------


Reading SHARK input file /home/rwth0701/scratch/cs681498/orcajob__30556388-4Vua/11448.SHARKINP.tmp ... ok
----------------------
SHARK INTEGRAL PACKAGE
----------------------

Number of atoms                             ...      4
Number of basis functions                   ...     73
Number of shells                            ...     37
Maximum angular momentum                    ...      3
Integral batch strategy                     ... SHARK/LIBINT Hybrid
RI-J (if used) integral strategy            ... SPLIT-RIJ (Revised 2003 algorithm where possible)
Printlevel                                  ...      1
Contraction scheme used                     ... SEGMENTED contraction
Coulomb Range Separation                    ... NOT USED
Exchange Range Separation                   ... NOT USED
Finite Nucleus Model                        ... NOT USED
Auxiliary Coulomb fitting basis             ... AVAILABLE
   # of basis functions in Aux-J            ...    393
   # of shells in Aux-J                     ...    145
   Maximum angular momentum in Aux-J        ...      4
Auxiliary J/K fitting basis                 ... AVAILABLE
   # of basis functions in Aux-JK           ...    393
   # of shells in Aux-JK                    ...    145
   Maximum angular momentum in Aux-JK       ...      4
Auxiliary Correlation fitting basis         ... AVAILABLE
   # of basis functions in Aux-C            ...    393
   # of shells in Aux-C                     ...    145
   Maximum angular momentum in Aux-C        ...      4
Auxiliary 'external' fitting basis          ... NOT available
Integral threshold                          ...     1.000000e-10
Primitive cut-off                           ...     1.000000e-11
Primitive pair pre-selection threshold      ...     1.000000e-11

Calculating pre-screening integrals         ... done (  0.1 sec) Dimension = 37
Organizing shell pair data                  ... done (  0.0 sec)
Shell pair information
Total number of shell pairs                 ...       703
Shell pairs after pre-screening             ...       688
Total number of primitive shell pairs       ...      1300
Primitive shell pairs kept                  ...      1183
          la=0 lb=0:    261 shell pairs
          la=1 lb=0:    253 shell pairs
          la=1 lb=1:     66 shell pairs
          la=2 lb=0:     46 shell pairs
          la=2 lb=1:     22 shell pairs
          la=2 lb=2:      3 shell pairs
          la=3 lb=0:     23 shell pairs
          la=3 lb=1:     11 shell pairs
          la=3 lb=2:      2 shell pairs
          la=3 lb=3:      1 shell pairs

Calculating one electron integrals          ... done (  0.0 sec)
Calculating RI/J V-Matrix + Cholesky decomp.... done (  0.1 sec)
Calculating RI/JK V-Matrix + Cholesky decomp... done (  0.1 sec)
Calculating RI/C V-Matrix + Cholesky decomp.... done (  0.1 sec)
Calculating Nuclear repulsion               ... done (  0.0 sec) ENN=      9.564858960312 Eh

SHARK setup successfully completed in   0.5 seconds

Maximum memory used throughout the entire GTOINT-calculation: 13.7 MB


           ************************************************************
           *        Program running with 4 parallel MPI-processes     *
           *              working on a common directory               *
           ************************************************************
-------------------------------------------------------------------------------
                                 ORCA SCF
-------------------------------------------------------------------------------

------------
SCF SETTINGS
------------
Hamiltonian:
 Density Functional     Method          .... DFT(GTOs)
 Exchange Functional    Exchange        .... B88
   X-Alpha parameter    XAlpha          ....  0.666667
   Becke's b parameter  XBeta           ....  0.004200
 Correlation Functional Correlation     .... LYP
 LDA part of GGA corr.  LDAOpt          .... VWN-5
 Gradients option       PostSCFGGA      .... off
 Hybrid DFT is turned on
   Fraction HF Exchange ScalHFX         ....  0.200000
   Scaling of DF-GGA-X  ScalDFX         ....  0.720000
   Scaling of DF-GGA-C  ScalDFC         ....  0.810000
   Scaling of DF-LDA-C  ScalLDAC        ....  1.000000
   Perturbative correction              ....  0.000000
   Density functional embedding theory  .... OFF
   NL short-range parameter             ....  4.800000
 RI-approximation to the Coulomb term is turned on
   Number of AuxJ basis functions       .... 393
   RIJ-COSX (HFX calculated with COS-X)).... on


General Settings:
 Integral files         IntName         .... /home/rwth0701/scratch/cs681498/orcajob__30556388-4Vua/11448
 Hartree-Fock type      HFTyp           .... UHF
 Total Charge           Charge          ....    0
 Multiplicity           Mult            ....    2
 Number of Electrons    NEL             ....    9
 Basis Dimension        Dim             ....   73
 Nuclear Repulsion      ENuc            ....      9.5648589603 Eh

Convergence Acceleration:
 DIIS                   CNVDIIS         .... on
   Start iteration      DIISMaxIt       ....    12
   Startup error        DIISStart       ....  0.200000
   # of expansion vecs  DIISMaxEq       ....     5
   Bias factor          DIISBfac        ....   1.050
   Max. coefficient     DIISMaxC        ....  10.000
 Trust-Rad. Augm. Hess. CNVTRAH         .... auto
   Auto Start mean grad. ratio tolernc. ....  1.125000
   Auto Start start iteration           ....    20
   Auto Start num. interpolation iter.  ....    10
   Max. Number of Micro iterations      ....    16
   Max. Number of Macro iterations      .... Maxiter - #DIIS iter
   Number of Davidson start vectors     ....     2
   Converg. threshold I  (grad. norm)   ....   5.000e-05
   Converg. threshold II (energy diff.) ....   1.000e-06
   Grad. Scal. Fac. for Micro threshold ....   0.100
   Minimum threshold for Micro iter.    ....   0.010
   NR start threshold (gradient norm)   ....   0.001
   Initial trust radius                 ....   0.400
   Minimum AH scaling param. (alpha)    ....   1.000
   Maximum AH scaling param. (alpha)    .... 1000.000
   Orbital update algorithm             .... Taylor
   White noise on init. David. guess    .... on
   Maximum white noise                  ....   0.010
   Quad. conv. algorithm                .... NR
 SOSCF                  CNVSOSCF        .... off
 Level Shifting         CNVShift        .... on
   Level shift para.    LevelShift      ....    0.2500
   Turn off err/grad.   ShiftErr        ....    0.0010
 Zerner damping         CNVZerner       .... off
 Static damping         CNVDamp         .... on
   Fraction old density DampFac         ....    0.7000
   Max. Damping (<1)    DampMax         ....    0.9800
   Min. Damping (>=0)   DampMin         ....    0.0000
   Turn off err/grad.   DampErr         ....    0.1000
 Fernandez-Rico         CNVRico         .... off

SCF Procedure:
 Maximum # iterations   MaxIter         ....   125
 SCF integral mode      SCFMode         .... Direct
   Integral package                     .... SHARK and LIBINT hybrid scheme
 Reset frequency        DirectResetFreq ....    20
 Integral Threshold     Thresh          ....  1.000e-10 Eh
 Primitive CutOff       TCut            ....  1.000e-11 Eh

Convergence Tolerance:
 Convergence Check Mode ConvCheckMode   .... Total+1el-Energy
 Convergence forced     ConvForced      .... 0
 Energy Change          TolE            ....  1.000e-06 Eh
 1-El. energy change                    ....  1.000e-03 Eh
 DIIS Error             TolErr          ....  1.000e-06


Diagonalization of the overlap matrix:
Smallest eigenvalue                        ... 1.624e-03
Time for diagonalization                   ...    0.002 sec
Threshold for overlap eigenvalues          ... 1.000e-08
Number of eigenvalues below threshold      ... 0
Time for construction of square roots      ...    0.011 sec
Total time needed                          ...    0.013 sec

Time for model grid setup =    0.063 sec

------------------------------
INITIAL GUESS: MODEL POTENTIAL
------------------------------
Loading Hartree-Fock densities                     ... done
Calculating cut-offs                               ... done
Initializing the effective Hamiltonian             ... done
Setting up the integral package (SHARK)            ... done
Starting the Coulomb interaction                   ... done (   0.0 sec)
Reading the grid                                   ... done
Mapping shells                                     ... done
Starting the XC term evaluation                    ... done (   0.0 sec)
  promolecular density results
     # of electrons  =      8.998276937
     EX              =     -5.965099941
     EC              =     -0.259945345
     EX+EC           =     -6.225045286
Transforming the Hamiltonian                       ... done (   0.0 sec)
Diagonalizing the Hamiltonian                      ... done (   0.0 sec)
Back transforming the eigenvectors                 ... done (   0.0 sec)
Now organizing SCF variables                       ... done
                      ------------------
                      INITIAL GUESS DONE (   0.1 sec)
                      ------------------
-------------------
DFT GRID GENERATION
-------------------

General Integration Accuracy     IntAcc      ... 4.388
Radial Grid Type                 RadialGrid  ... OptM3 with GC (2021)
Angular Grid (max. ang.)         AngularGrid ... 4 (Lebedev-302)
Angular grid pruning method      GridPruning ... 4 (adaptive)
Weight generation scheme         WeightScheme... Becke
Basis function cutoff            BFCut       ... 1.0000e-10
Integration weight cutoff        WCut        ... 1.0000e-14
Angular grids for H and He will be reduced by one unit
Partially contracted basis set               ... off
Rotationally invariant grid construction     ... off

Total number of grid points                  ...    17043
Total number of batches                      ...      269
Average number of points per batch           ...       63
Average number of grid points per atom       ...     4261
Time for grid setup =    0.145 sec

--------------------
COSX GRID GENERATION
--------------------

GRIDX 1
-------
General Integration Accuracy     IntAcc      ... 3.816
Radial Grid Type                 RadialGrid  ... OptM3 with GC (2021)
Angular Grid (max. ang.)         AngularGrid ... 1 (Lebedev-50)
Angular grid pruning method      GridPruning ... 4 (adaptive)
Weight generation scheme         WeightScheme... Becke
Basis function cutoff            BFCut       ... 1.0000e-10
Integration weight cutoff        WCut        ... 1.0000e-14
Angular grids for H and He will be reduced by one unit
Partially contracted basis set               ... on
Rotationally invariant grid construction     ... off

Total number of grid points                  ...     2140
Total number of batches                      ...       35
Average number of points per batch           ...       61
Average number of grid points per atom       ...      535
UseSFitting                                  ... on

GRIDX 2
-------
General Integration Accuracy     IntAcc      ... 4.020
Radial Grid Type                 RadialGrid  ... OptM3 with GC (2021)
Angular Grid (max. ang.)         AngularGrid ... 2 (Lebedev-110)
Angular grid pruning method      GridPruning ... 4 (adaptive)
Weight generation scheme         WeightScheme... Becke
Basis function cutoff            BFCut       ... 1.0000e-10
Integration weight cutoff        WCut        ... 1.0000e-14
Angular grids for H and He will be reduced by one unit
Partially contracted basis set               ... on
Rotationally invariant grid construction     ... off

Total number of grid points                  ...     5047
Total number of batches                      ...       81
Average number of points per batch           ...       62
Average number of grid points per atom       ...     1262
UseSFitting                                  ... on

GRIDX 3
-------
General Integration Accuracy     IntAcc      ... 4.338
Radial Grid Type                 RadialGrid  ... OptM3 with GC (2021)
Angular Grid (max. ang.)         AngularGrid ... 3 (Lebedev-194)
Angular grid pruning method      GridPruning ... 4 (adaptive)
Weight generation scheme         WeightScheme... Becke
Basis function cutoff            BFCut       ... 1.0000e-10
Integration weight cutoff        WCut        ... 1.0000e-14
Angular grids for H and He will be reduced by one unit
Partially contracted basis set               ... on
Rotationally invariant grid construction     ... off

Total number of grid points                  ...    11714
Total number of batches                      ...      185
Average number of points per batch           ...       63
Average number of grid points per atom       ...     2928
UseSFitting                                  ... on

Time for X-Grid setup             =    0.220 sec

--------------
SCF ITERATIONS
--------------
ITER       Energy         Delta-E        Max-DP      RMS-DP      [F,P]     Damp
               ***  Starting incremental Fock matrix formation  ***
  0    -39.7849495260   0.000000000000 0.01497147  0.00049272  0.0881368 0.7000
  1    -39.8030125165  -0.018062990531 0.00936445  0.00036817  0.0465024 0.7000
                               ***Turning on DIIS***
  2    -39.8109959053  -0.007983388779 0.01578612  0.00064263  0.0189742 0.0000
  3    -39.8219237929  -0.010927887579 0.00846831  0.00027784  0.0279052 0.0000
  4    -39.8252692890  -0.003345496114 0.00297241  0.00007781  0.0057365 0.0000
  5    -39.8254049405  -0.000135651504 0.00106533  0.00003279  0.0019139 0.0000
  6    -39.8254224771  -0.000017536575 0.00088964  0.00002544  0.0008113 0.0000
               *** Restarting incremental Fock matrix formation ***
                                   *** Resetting DIIS ***
  7    -39.8254328565  -0.000010379417 0.00009464  0.00000317  0.0000926 0.0000
                 **** Energy Check signals convergence ****

               *****************************************************
               *                     SUCCESS                       *
               *           SCF CONVERGED AFTER   8 CYCLES          *
               *****************************************************

Old exchange energy                            =     -1.238292730 Eh
New exchange energy                            =     -1.238291357 Eh
Exchange energy change after final integration =      0.000001373 Eh
Total energy after final integration           =    -39.825431566 Eh
Final COS-X integration done in                =     0.215 sec

----------------
TOTAL SCF ENERGY
----------------

Total Energy       :          -39.82543157 Eh           -1083.70509 eV

Components:
Nuclear Repulsion  :            9.56485896 Eh             260.27304 eV
Electronic Energy  :          -49.39029053 Eh           -1343.97813 eV
One Electron Energy:          -71.44758100 Eh           -1944.18752 eV
Two Electron Energy:           22.05729048 Eh             600.20939 eV
Max COSX asymmetry :            0.00000012 Eh               0.00000 eV

Virial components:
Potential Energy   :          -79.39821812 Eh           -2160.53535 eV
Kinetic Energy     :           39.57278655 Eh            1076.83027 eV
Virial Ratio       :            2.00638431


DFT components:
N(Alpha)           :        4.999999587344 electrons
N(Beta)            :        4.000000237736 electrons
N(Total)           :        8.999999825080 electrons
E(X)               :       -4.902177846813 Eh       
E(C)               :       -0.309073935996 Eh       
E(XC)              :       -5.211251782809 Eh       
DFET-embed. en.    :        0.000000000000 Eh       

---------------
SCF CONVERGENCE
---------------

  Last Energy change         ...   -8.2692e-08  Tolerance :   1.0000e-06
  Last MAX-Density change    ...    0.0000e+00  Tolerance :   1.0000e-05
  Last RMS-Density change    ...    0.0000e+00  Tolerance :   1.0000e-06
  Last DIIS Error            ...    6.4763e-05  Tolerance :   1.0000e-06

             **** THE GBW FILE WAS UPDATED (/home/rwth0701/scratch/cs681498/orcajob__30556388-4Vua/11448.gbw) ****
             **** DENSITY /home/rwth0701/scratch/cs681498/orcajob__30556388-4Vua/11448.scfp WAS UPDATED ****
             **** ENERGY FILE WAS UPDATED (/home/rwth0701/scratch/cs681498/orcajob__30556388-4Vua/11448.en.tmp) ****
----------------------
UHF SPIN CONTAMINATION
----------------------

Warning: in a DFT calculation there is little theoretical justification to 
         calculate <S**2> as in Hartree-Fock theory. We will do it anyways
         but you should keep in mind that the values have only limited relevance

Expectation value of <S**2>     :     0.753772
Ideal value S*(S+1) for S=0.5   :     0.750000
Deviation                       :     0.003772

             **** THE GBW FILE WAS UPDATED (/home/rwth0701/scratch/cs681498/orcajob__30556388-4Vua/11448.gbw) ****
             **** DENSITY /home/rwth0701/scratch/cs681498/orcajob__30556388-4Vua/11448.scfp WAS UPDATED ****
----------------
ORBITAL ENERGIES
----------------
                 SPIN UP ORBITALS
  NO   OCC          E(Eh)            E(eV) 
   0   1.0000     -10.187903      -277.2269 
   1   1.0000      -0.684885       -18.6367 
   2   1.0000      -0.435639       -11.8543 
   3   1.0000      -0.403731       -10.9861 
   4   1.0000      -0.234934        -6.3929 
   5   0.0000       0.000474         0.0129 
   6   0.0000       0.034801         0.9470 
   7   0.0000       0.038501         1.0477 
   8   0.0000       0.047420         1.2904 
   9   0.0000       0.082009         2.2316 
  10   0.0000       0.092571         2.5190 
  11   0.0000       0.098219         2.6727 
  12   0.0000       0.217923         5.9300 
  13   0.0000       0.225910         6.1473 
  14   0.0000       0.246743         6.7142 
  15   0.0000       0.275998         7.5103 
  16   0.0000       0.293017         7.9734 
  17   0.0000       0.319314         8.6890 
  18   0.0000       0.338358         9.2072 
  19   0.0000       0.546853        14.8806 
  20   0.0000       0.567311        15.4373 
  21   0.0000       0.732111        19.9217 
  22   0.0000       0.742818        20.2131 
  23   0.0000       0.769593        20.9417 
  24   0.0000       0.820350        22.3229 
  25   0.0000       0.880496        23.9595 
  26   0.0000       0.905697        24.6453 
  27   0.0000       0.936398        25.4807 
  28   0.0000       0.953456        25.9449 
  29   0.0000       1.048396        28.5283 
  30   0.0000       1.068343        29.0711 
  31   0.0000       1.124160        30.5900 
  32   0.0000       1.166185        31.7335 
  33   0.0000       1.166959        31.7546 
  34   0.0000       1.442731        39.2587 
  35   0.0000       1.462245        39.7897 
  36   0.0000       1.505144        40.9570 
  37   0.0000       1.711079        46.5608 
  38   0.0000       1.721261        46.8379 
  39   0.0000       1.761073        47.9212 
  40   0.0000       2.718255        73.9675 
  41   0.0000       2.734792        74.4175 
  42   0.0000       2.865670        77.9788 
  43   0.0000       2.893553        78.7376 
  44   0.0000       2.950166        80.2781 
  45   0.0000       2.966953        80.7349 
  46   0.0000       2.982002        81.1444 
  47   0.0000       3.146858        85.6304 
  48   0.0000       3.165256        86.1310 
  49   0.0000       3.249921        88.4348 
  50   0.0000       3.258031        88.6555 
  51   0.0000       3.665098        99.7324 
  52   0.0000       3.717028       101.1455 
  53   0.0000       3.803177       103.4897 
  54   0.0000       3.924541       106.7922 
  55   0.0000       3.937206       107.1368 
  56   0.0000       4.049493       110.1923 
  57   0.0000       4.111625       111.8830 
  58   0.0000       4.136617       112.5631 
  59   0.0000       4.148437       112.8847 
  60   0.0000       4.571977       124.4098 
  61   0.0000       5.020773       136.6222 
  62   0.0000       5.379170       146.3747 
  63   0.0000       5.391061       146.6982 
  64   0.0000       5.543686       150.8514 
  65   0.0000       6.038578       164.3181 
  66   0.0000       6.131407       166.8441 
  67   0.0000       7.703705       209.6285 
  68   0.0000      29.051077       790.5200 
  69   0.0000      37.117260      1010.0120 
  70   0.0000      37.197191      1012.1870 
  71   0.0000      37.218550      1012.7682 
  72   0.0000     133.504208      3632.8342 

                 SPIN DOWN ORBITALS
  NO   OCC          E(Eh)            E(eV) 
   0   1.0000     -10.173396      -276.8322 
   1   1.0000      -0.645375       -17.5615 
   2   1.0000      -0.426510       -11.6059 
   3   1.0000      -0.394112       -10.7243 
   4   0.0000      -0.077322        -2.1041 
   5   0.0000       0.003733         0.1016 
   6   0.0000       0.034484         0.9384 
   7   0.0000       0.038104         1.0369 
   8   0.0000       0.060705         1.6519 
   9   0.0000       0.084361         2.2956 
  10   0.0000       0.095437         2.5970 
  11   0.0000       0.100200         2.7266 
  12   0.0000       0.219272         5.9667 
  13   0.0000       0.227405         6.1880 
  14   0.0000       0.265051         7.2124 
  15   0.0000       0.299109         8.1392 
  16   0.0000       0.310498         8.4491 
  17   0.0000       0.324287         8.8243 
  18   0.0000       0.351987         9.5781 
  19   0.0000       0.573109        15.5951 
  20   0.0000       0.594608        16.1801 
  21   0.0000       0.733771        19.9669 
  22   0.0000       0.744224        20.2514 
  23   0.0000       0.794829        21.6284 
  24   0.0000       0.819523        22.3004 
  25   0.0000       0.885199        24.0875 
  26   0.0000       0.910403        24.7733 
  27   0.0000       0.953032        25.9333 
  28   0.0000       0.971726        26.4420 
  29   0.0000       1.075171        29.2569 
  30   0.0000       1.122248        30.5379 
  31   0.0000       1.147455        31.2238 
  32   0.0000       1.178398        32.0658 
  33   0.0000       1.180294        32.1174 
  34   0.0000       1.451689        39.5025 
  35   0.0000       1.481591        40.3161 
  36   0.0000       1.514282        41.2057 
  37   0.0000       1.716735        46.7147 
  38   0.0000       1.730514        47.0897 
  39   0.0000       1.767370        48.0926 
  40   0.0000       2.759075        75.0783 
  41   0.0000       2.775362        75.5214 
  42   0.0000       2.870447        78.1088 
  43   0.0000       2.938166        79.9516 
  44   0.0000       2.968107        80.7663 
  45   0.0000       2.993757        81.4643 
  46   0.0000       3.034492        82.5727 
  47   0.0000       3.197916        87.0197 
  48   0.0000       3.217116        87.5422 
  49   0.0000       3.307890        90.0123 
  50   0.0000       3.314793        90.2001 
  51   0.0000       3.665427        99.7413 
  52   0.0000       3.776979       102.7768 
  53   0.0000       3.802388       103.4682 
  54   0.0000       3.926480       106.8449 
  55   0.0000       3.951452       107.5245 
  56   0.0000       4.065081       110.6165 
  57   0.0000       4.114855       111.9709 
  58   0.0000       4.150739       112.9474 
  59   0.0000       4.161811       113.2486 
  60   0.0000       4.572139       124.4142 
  61   0.0000       5.042699       137.2188 
  62   0.0000       5.378051       146.3442 
  63   0.0000       5.389973       146.6686 
  64   0.0000       5.539832       150.7465 
  65   0.0000       6.041451       164.3962 
  66   0.0000       6.133841       166.9103 
  67   0.0000       7.738745       210.5819 
  68   0.0000      29.077912       791.2502 
  69   0.0000      37.105225      1009.6845 
  70   0.0000      37.185136      1011.8590 
  71   0.0000      37.206501      1012.4404 
  72   0.0000     133.512113      3633.0493 

                    ********************************
                    * MULLIKEN POPULATION ANALYSIS *
                    ********************************

--------------------------------------------
MULLIKEN ATOMIC CHARGES AND SPIN POPULATIONS
--------------------------------------------
   0 C :   -0.429676    1.106183
   1 H :    0.151226   -0.033335
   2 H :    0.142815   -0.037457
   3 H :    0.135635   -0.035392
Sum of atomic charges         :   -0.0000000
Sum of atomic spin populations:    1.0000000

-----------------------------------------------------
MULLIKEN REDUCED ORBITAL CHARGES AND SPIN POPULATIONS
-----------------------------------------------------
CHARGE
  0 C s       :     3.337671  s :     3.337671
      pz      :     0.969621  p :     3.064663
      px      :     1.044437
      py      :     1.050605
      dz2     :     0.005520  d :     0.024390
      dxz     :     0.000186
      dyz     :     0.000414
      dx2y2   :     0.010863
      dxy     :     0.007407
      f0      :     0.000070  f :     0.002952
      f+1     :     0.000687
      f-1     :     0.000628
      f+2     :     0.000056
      f-2     :     0.000023
      f+3     :     0.000978
      f-3     :     0.000510
  1 H s       :     0.820802  s :     0.820802
      pz      :     0.011086  p :     0.027972
      px      :     0.008668
      py      :     0.008218
  2 H s       :     0.831123  s :     0.831123
      pz      :     0.010046  p :     0.026063
      px      :     0.009638
      py      :     0.006379
  3 H s       :     0.837842  s :     0.837842
      pz      :     0.010252  p :     0.026523
      px      :     0.006756
      py      :     0.009515

SPIN
  0 C s       :     0.068036  s :     0.068036
      pz      :     0.953375  p :     1.042465
      px      :     0.047105
      py      :     0.041985
      dz2     :    -0.004532  d :    -0.002985
      dxz     :    -0.000116
      dyz     :    -0.000053
      dx2y2   :     0.001088
      dxy     :     0.000628
      f0      :    -0.000050  f :    -0.001332
      f+1     :    -0.000602
      f-1     :    -0.000583
      f+2     :    -0.000025
      f-2     :    -0.000016
      f+3     :    -0.000039
      f-3     :    -0.000018
  1 H s       :    -0.044258  s :    -0.044258
      pz      :     0.010952  p :     0.010923
      px      :     0.000071
      py      :    -0.000100
  2 H s       :    -0.047055  s :    -0.047055
      pz      :     0.009936  p :     0.009598
      px      :    -0.000041
      py      :    -0.000296
  3 H s       :    -0.044952  s :    -0.044952
      pz      :     0.010066  p :     0.009560
      px      :    -0.000420
      py      :    -0.000087


                     *******************************
                     * LOEWDIN POPULATION ANALYSIS *
                     *******************************

-------------------------------------------
LOEWDIN ATOMIC CHARGES AND SPIN POPULATIONS
-------------------------------------------
   0 C :   -0.161560    0.912958
   1 H :    0.048483    0.031151
   2 H :    0.065350    0.025053
   3 H :    0.047727    0.030838

----------------------------------------------------
LOEWDIN REDUCED ORBITAL CHARGES AND SPIN POPULATIONS
----------------------------------------------------
CHARGE
  0 C s       :     2.890633  s :     2.890633
      pz      :     0.880019  p :     3.172864
      px      :     1.140505
      py      :     1.152340
      dz2     :     0.006844  d :     0.090460
      dxz     :     0.000462
      dyz     :     0.001276
      dx2y2   :     0.047410
      dxy     :     0.034468
      f0      :     0.000335  f :     0.007603
      f+1     :     0.001956
      f-1     :     0.001761
      f+2     :     0.000156
      f-2     :     0.000075
      f+3     :     0.002084
      f-3     :     0.001236
  1 H s       :     0.804885  s :     0.804885
      pz      :     0.042914  p :     0.146632
      px      :     0.050787
      py      :     0.052930
  2 H s       :     0.798739  s :     0.798739
      pz      :     0.038739  p :     0.135912
      px      :     0.067717
      py      :     0.029456
  3 H s       :     0.805766  s :     0.805766
      pz      :     0.042901  p :     0.146508
      px      :     0.035474
      py      :     0.068133

SPIN
  0 C s       :     0.020113  s :     0.020113
      pz      :     0.861906  p :     0.901767
      px      :     0.021684
      py      :     0.018177
      dz2     :    -0.003907  d :    -0.007591
      dxz     :    -0.000116
      dyz     :    -0.000117
      dx2y2   :    -0.002023
      dxy     :    -0.001427
      f0      :     0.000110  f :    -0.001332
      f+1     :    -0.000552
      f-1     :    -0.000530
      f+2     :    -0.000030
      f-2     :    -0.000017
      f+3     :    -0.000207
      f-3     :    -0.000107
  1 H s       :    -0.017373  s :    -0.017373
      pz      :     0.042341  p :     0.048524
      px      :     0.003339
      py      :     0.002845
  2 H s       :    -0.018606  s :    -0.018606
      pz      :     0.038055  p :     0.043659
      px      :     0.004985
      py      :     0.000620
  3 H s       :    -0.016481  s :    -0.016481
      pz      :     0.041794  p :     0.047318
      px      :     0.001117
      py      :     0.004408


                      *****************************
                      * MAYER POPULATION ANALYSIS *
                      *****************************

  NA   - Mulliken gross atomic population
  ZA   - Total nuclear charge
  QA   - Mulliken gross atomic charge
  VA   - Mayer's total valence
  BVA  - Mayer's bonded valence
  FA   - Mayer's free valence

  ATOM       NA         ZA         QA         VA         BVA        FA
  0 C      6.4297     6.0000    -0.4297     3.8741     2.9280     0.9461
  1 H      0.8488     1.0000     0.1512     0.9861     0.9841     0.0020
  2 H      0.8572     1.0000     0.1428     0.9830     0.9808     0.0022
  3 H      0.8644     1.0000     0.1356     0.9790     0.9771     0.0020

  Mayer bond orders larger than 0.100000
B(  0-C ,  1-H ) :   0.9748 B(  0-C ,  2-H ) :   0.9759 B(  0-C ,  3-H ) :   0.9774 


-------
TIMINGS
-------

Total SCF time: 0 days 0 hours 0 min 5 sec 

Total time                  ....       5.135 sec
Sum of individual times     ....       4.529 sec  ( 88.2%)

Fock matrix formation       ....       3.839 sec  ( 74.8%)
  Split-RI-J                ....       0.435 sec  ( 11.3% of F)
  Chain of spheres X        ....       1.086 sec  ( 28.3% of F)
  XC integration            ....       1.547 sec  ( 40.3% of F)
    Basis function eval.    ....       0.132 sec  (  8.5% of XC)
    Density eval.           ....       0.149 sec  (  9.7% of XC)
    XC-Functional eval.     ....       0.130 sec  (  8.4% of XC)
    XC-Potential eval.      ....       0.172 sec  ( 11.1% of XC)
Diagonalization             ....       0.052 sec  (  1.0%)
Density matrix formation    ....       0.003 sec  (  0.1%)
Population analysis         ....       0.060 sec  (  1.2%)
Initial guess               ....       0.070 sec  (  1.4%)
Orbital Transformation      ....       0.000 sec  (  0.0%)
Orbital Orthonormalization  ....       0.000 sec  (  0.0%)
DIIS solution               ....       0.077 sec  (  1.5%)
Grid generation             ....       0.428 sec  (  8.3%)

Maximum memory used throughout the entire SCF-calculation: 59.0 MB

-------------------------   --------------------
FINAL SINGLE POINT ENERGY       -39.825431566249
-------------------------   --------------------

   --->>> g-tensor requested, so NeedSOC=true

                            ***************************************
                            *     ORCA property calculations      *
                            ***************************************

                                    ---------------------
                                    Active property flags
                                    ---------------------
   (+) Dipole Moment
   (+) g-tensor
   (+) Nuclear properties (Hyperfine,Quadrupole)
   (+) Spin-Orbit Integrals are needed


------------------------------------------------------------------------------
                       ORCA ELECTRIC PROPERTIES CALCULATION
------------------------------------------------------------------------------

Dipole Moment Calculation                       ... on
Quadrupole Moment Calculation                   ... off
Polarizability Calculation                      ... off
GBWName                                         ... /home/rwth0701/scratch/cs681498/orcajob__30556388-4Vua/11448.gbw
Electron density                                ... /home/rwth0701/scratch/cs681498/orcajob__30556388-4Vua/11448.scfp
The origin for moment calculation is the CENTER OF MASS  = (-88.895513, -128.312935 -42.366019)

-------------
DIPOLE MOMENT
-------------
                                X             Y             Z
Electronic contribution:     -0.05153      -0.11654      -0.03352
Nuclear contribution   :      0.05041       0.13389       0.05297
                        -----------------------------------------
Total Dipole Moment    :     -0.00112       0.01734       0.01945
                        -----------------------------------------
Magnitude (a.u.)       :      0.02608
Magnitude (Debye)      :      0.06629



--------------------
Rotational spectrum 
--------------------
 
Rotational constants in cm-1:    10.537414     8.397570     4.676072 
Rotational constants in MHz : 315903.713019 251752.813629 140185.111546 

 Dipole components along the rotational axes: 
x,y,z [a.u.] :     0.006439     0.017897     0.017843 
x,y,z [Debye]:     0.016366     0.045491     0.045354 

 


           ************************************************************
           *        Program running with 4 parallel MPI-processes     *
           *              working on a common directory               *
           ************************************************************
------------------------------------------------------------------------------
                         ORCA SPIN-ORBIT COUPLING CALCULATION
------------------------------------------------------------------------------

GBW file                                    ... /home/rwth0701/scratch/cs681498/orcajob__30556388-4Vua/11448.gbw
Input density                               ... /home/rwth0701/scratch/cs681498/orcajob__30556388-4Vua/11448.scfp
Output integrals                            ... /home/rwth0701/scratch/cs681498/orcajob__30556388-4Vua/11448
Operator type                               ... Mean-field/Effective potential
   One-Electron Terms                       ... 1
   Coulomb Contribution                     ... 3
   Exchange Contribution                    ... 3
   Correlation Contribution                 ... 0
   Maximum number of centers                ... 4
SHARK 2-electron RIJ-SOMF                   ... done (  0.2 sec)
SHARK 1-electron  MaxCenter=4               ... done (  0.0 sec)
SHARK 2-electron DoJ,X=0,1 MaxCenter=1      ... done (  0.2 sec)

Maximum memory used throughout the entire SOC-calculation: 11.3 MB
Total time for SOC:  2.153


           ************************************************************
           *        Program running with 4 parallel MPI-processes     *
           *              working on a common directory               *
           ************************************************************
------------------------------------------------------------------------------
                                ORCA EPR/NMR CALCULATION
------------------------------------------------------------------------------

GBWName                      ... /home/rwth0701/scratch/cs681498/orcajob__30556388-4Vua/11448.gbw
Electron density             ... /home/rwth0701/scratch/cs681498/orcajob__30556388-4Vua/11448.scfp
Spin density                 ... /home/rwth0701/scratch/cs681498/orcajob__30556388-4Vua/11448.scfr
Spin-orbit integrals         ... /home/rwth0701/scratch/cs681498/orcajob__30556388-4Vua/11448
Treatment of gauge           ... GIAO (approximations 1/2el = 0,0)
Details of the CP(SCF) procedure:
       Solver   = POPLE   
       MaxIter  =    64   
       Tolerance=    1.000e-03
       COSX Grid=     1   
       Op-0     =   0-  4 =>   5- 72
       Op-1     =   0-  3 =>   4- 72
Multiplicity                 ... 2
g-tensor                     ... 1
NMR chemical shifts          ... 0
NMR spin-spin couplings      ... 0
NMR spectrum                 ... 0
Number of nuclei for epr/nmr ... 4
   Nucleus:   1H 
       Hyperfine : Isotope=    1 I=   0.500 P= 533.551
       Quadrupole: Isotope=    2 I=   1.000 Q=   0.003
       Spin-Orbit: Zeff=   1.000
       Nuclear Spin-Spin: Gn=   0.000
       EPRNMR Input: 
       rho(0)=N f(grad)=N a(iso)=Y a(dip)=Y a(orb)=Y sigma(nmr)=N spin-spin(nmr)=all-N,DSO-N,PSO-N,FC-N,SD-N
   Nucleus:   2H 
       Hyperfine : Isotope=    1 I=   0.500 P= 533.551
       Quadrupole: Isotope=    2 I=   1.000 Q=   0.003
       Spin-Orbit: Zeff=   1.000
       Nuclear Spin-Spin: Gn=   0.000
       EPRNMR Input: 
       rho(0)=N f(grad)=N a(iso)=Y a(dip)=Y a(orb)=Y sigma(nmr)=N spin-spin(nmr)=all-N,DSO-N,PSO-N,FC-N,SD-N
   Nucleus:   3H 
       Hyperfine : Isotope=    1 I=   0.500 P= 533.551
       Quadrupole: Isotope=    2 I=   1.000 Q=   0.003
       Spin-Orbit: Zeff=   1.000
       Nuclear Spin-Spin: Gn=   0.000
       EPRNMR Input: 
       rho(0)=N f(grad)=N a(iso)=Y a(dip)=Y a(orb)=Y sigma(nmr)=N spin-spin(nmr)=all-N,DSO-N,PSO-N,FC-N,SD-N
   Nucleus:   0C 
       Hyperfine : Isotope=   13 I=   0.500 P= 134.190
       Quadrupole: Isotope=   13 I=   0.500 Q=   0.000
       Spin-Orbit: Zeff=   3.600
       Nuclear Spin-Spin: Gn=   0.000
       EPRNMR Input: 
       rho(0)=N f(grad)=N a(iso)=Y a(dip)=Y a(orb)=Y sigma(nmr)=N spin-spin(nmr)=all-N,DSO-N,PSO-N,FC-N,SD-N
Forming RHS of the CP-SCF equations         ... 
Calculating right hand sides for GIAO treatment        ... 
  Entering RightHandSide GIAO. ScalHFX=    0.2000 NeedHFX=1
     -> 1-electron GIAO integrals will be done analytically
     -> RIJCOSX used in SCF. Same chosen for GIAO calculation.
     Making grid for GIAO integrations   ...

GRID GIAO
---------

General Integration Accuracy     IntAcc      ... 4.388
Radial Grid Type                 RadialGrid  ... OptM3 with GC (2021)
Angular Grid (max. ang.)         AngularGrid ... 4 (Lebedev-302)
Angular grid pruning method      GridPruning ... 4 (adaptive)
Weight generation scheme         WeightScheme... Becke
Basis function cutoff            BFCut       ... 1.0000e-10
Integration weight cutoff        WCut        ... 1.0000e-14
Angular grids for H and He will be reduced by one unit
Partially contracted basis set               ... off
Rotationally invariant grid construction     ... off

Total number of grid points                  ...    17043
Total number of batches                      ...      269
Average number of points per batch           ...       63
Average number of grid points per atom       ...     4261

  One-electron GIAO integrals (SHARK)     ... done
  Calculating G(B)[P]                     ... (RI-J: SHARK-ok) (COSX-ok) (add-J+K:ok) => dG/dB done
  DFT XC-terms                            ... done
  Extracting occupied and virtual blocks  ... 
  Operator  0  NO=   5 NV=  68 
  Operator  1  NO=   4 NV=  69 
  Transforming and RHS contribution       ... done
  Adding eps_i * S(B)_ai terms            ... done
  Projecting overlap derivatives          ... done
  Building G[dS/dB_ij] (COSX)             ... done
  Transforming to MO basis                ... done
  Summing G[dS/dB_ij] into RHS contribs.  ... done

  GIAO profiling information: 
    Total GIAO time               ...       0.9 sec
       GIAO 1-electron integrals  ...       0.0 sec (  0.5%)
       GIAO G(dS/dB) terms        ...       0.1 sec ( 12.3%)
       GIAO RI-J                  ...       0.1 sec ( 13.1%)
       GIAO COSX                  ...       0.2 sec ( 19.7%)
       GIAO XC-terms              ...       0.4 sec ( 38.3%)
       Right hand side assembly   ...       0.0 sec (  0.1%)

  GIAO right hand side done


------------------------------------------------------------------------------
                           ORCA CP-SCF CALCULATION
------------------------------------------------------------------------------

Input orbitals are from        ... /home/rwth0701/scratch/cs681498/orcajob__30556388-4Vua/11448.gbw
Input Perturbation             ... /home/rwth0701/scratch/cs681498/orcajob__30556388-4Vua/11448.pin.tmp
Wavefunction output            ... /home/rwth0701/scratch/cs681498/orcajob__30556388-4Vua/11448.pout.tmp
Perturbation mode              ... Imaginary perturbation
Solver                         ... POPLE
Max. number of iterations      ... 64
Convergence tolerance          ... 1.000e-03
Integral handling              ... Direct
DFT GridXC                     ... 1
COSX GridX                     ... 1
COSX IntAccX                   ... 3.067
COSX Algorithm                 ... Auto
Number of perturbations        ... 3
Number of operators            ... 2
Orbital ranges used for CP-SCF:
 Operator 0:  Orbitals   0...  4  to   5... 72
 Operator 1:  Orbitals   0...  3  to   4... 72
Variables per perturbation     ... 616
DFT calculation                         ... on
XC functional terms                     ... off
Hybrid DFT                              ... on
   Exchange mixing (SCF)                ...  0.200
   Exchange mixing (CP-SCF)             ...  0.200
   GGA exch. scaling(SCF)               ...  0.720
   GGA exch. scaling (CP-SCF)           ...  0.720
   GGA corr. scaling (SCF)              ...  0.810
   GGA corr. scaling (CP-SCF)           ...  0.810

CP-SCF GRID
-----------

General Integration Accuracy     IntAcc      ... 3.467
Radial Grid Type                 RadialGrid  ... OptM3 with GC (2021)
Angular Grid (max. ang.)         AngularGrid ... 1 (Lebedev-50)
Angular grid pruning method      GridPruning ... 4 (adaptive)
Weight generation scheme         WeightScheme... Becke
Basis function cutoff            BFCut       ... 1.0000e-10
Integration weight cutoff        WCut        ... 1.0000e-14
Angular grids for H and He will be reduced by one unit
Partially contracted basis set               ... off
Rotationally invariant grid construction     ... off

Total number of grid points                  ...     2335
Total number of batches                      ...       38
Average number of points per batch           ...       61
Average number of grid points per atom       ...      584

CP-SCF GRIDX
------------

General Integration Accuracy     IntAcc      ... 3.067
Radial Grid Type                 RadialGrid  ... OptM3 with GC (2021)
Angular Grid (max. ang.)         AngularGrid ... 1 (Lebedev-50)
Angular grid pruning method      GridPruning ... 4 (adaptive)
Weight generation scheme         WeightScheme... Becke
Basis function cutoff            BFCut       ... 1.0000e-10
Integration weight cutoff        WCut        ... 1.0000e-14
Angular grids for H and He will be reduced by one unit
Partially contracted basis set               ... on
Rotationally invariant grid construction     ... off

Total number of grid points                  ...     1071
Total number of batches                      ...       20
Average number of points per batch           ...       53
Average number of grid points per atom       ...      268

Memory available               ... 1014.6 MB
Memory needed per perturbation ...   0.4 MB
Perturbations treated per batch... 3
Number of batches              ... 1
     CP-SCF ITERATION   0:   6.9537e+00 (   0.1 sec   0/  3 done)
     CP-SCF ITERATION   1:   5.6888e-02 (   0.1 sec   0/  3 done)
     CP-SCF ITERATION   2:   3.7733e-03 (   0.1 sec   0/  3 done)
     CP-SCF ITERATION   3:   3.0994e-04 (   0.1 sec   3/  3 done)
                    *** THE CP-SCF HAS CONVERGED ***

Forming final perturbed densities           ... done
Transforming perturbed density to AO basis  ... done

Magnetic field perturbation calculated in  1.498 sec
GIAO: Diamagnetic terms      (analytic)     (SHARK) ... done
GIAO: 1el-Paramagnetic terms (analytic)     (SHARK) ... done

-------------------
ELECTRONIC G-MATRIX
-------------------

 The g-matrix: 
              2.0029004    0.0000250   -0.0000665
              0.0000262    2.0028729    0.0000481
             -0.0000565    0.0000689    2.0022391

 gel          2.0023193    2.0023193    2.0023193
 gRMC        -0.0001272   -0.0001272   -0.0001272
 gDSO(tot)    0.0000344    0.0000707    0.0000711
 gPSO(tot)    0.0000013    0.0006054    0.0006535
             ----------   ----------   ----------
 g(tot)       2.0022277    2.0028681    2.0029166 iso=  2.0026708
 Delta-g     -0.0000916    0.0005488    0.0005973 iso=  0.0003515
 Orientation: 
  X           0.0942369   -0.4564262   -0.8847567
  Y          -0.0936516    0.8807065   -0.4643118
  Z           0.9911351    0.1266142    0.0402500

Notes:  (1) The g-matrix conforms to the "BgS" spin Hamiltonian convention. 
        (2) The principal values are square roots of the eigenvalues of g*gT.
        (3) Orientations are eigenvectors of g*gT written as column vectors.
        (4) Individual contributions are projections of the full matrices onto the eigenvectors of g*gT.
        (5) Tensor is right-handed.


-----------------------------------------
ELECTRIC AND MAGNETIC HYPERFINE STRUCTURE
-----------------------------------------

 -----------------------------------------------------------
 Nucleus   1H : A:ISTP=    1 I=  0.5 P=533.5514 MHz/au**3
                Q:ISTP=    2 I=  1.0 Q=  0.0029 barn     
 -----------------------------------------------------------
 Solving for nuclear perturbation:
Forming RHS of the CP-SCF equations         ... 
Calc. nucleus orbit integrals (SHARK)       ... done

------------------------------------------------------------------------------
                           ORCA CP-SCF CALCULATION
------------------------------------------------------------------------------

Input orbitals are from        ... /home/rwth0701/scratch/cs681498/orcajob__30556388-4Vua/11448.gbw
Input Perturbation             ... /home/rwth0701/scratch/cs681498/orcajob__30556388-4Vua/11448.pin.tmp
Wavefunction output            ... /home/rwth0701/scratch/cs681498/orcajob__30556388-4Vua/11448.pout.tmp
Perturbation mode              ... Imaginary perturbation
Solver                         ... POPLE
Max. number of iterations      ... 64
Convergence tolerance          ... 1.000e-03
Integral handling              ... Direct
DFT GridXC                     ... 1
COSX GridX                     ... 1
COSX IntAccX                   ... 3.067
COSX Algorithm                 ... Auto
Number of perturbations        ... 3
Number of operators            ... 2
Orbital ranges used for CP-SCF:
 Operator 0:  Orbitals   0...  4  to   5... 72
 Operator 1:  Orbitals   0...  3  to   4... 72
Variables per perturbation     ... 616
DFT calculation                         ... on
XC functional terms                     ... off
Hybrid DFT                              ... on
   Exchange mixing (SCF)                ...  0.200
   Exchange mixing (CP-SCF)             ...  0.200
   GGA exch. scaling(SCF)               ...  0.720
   GGA exch. scaling (CP-SCF)           ...  0.720
   GGA corr. scaling (SCF)              ...  0.810
   GGA corr. scaling (CP-SCF)           ...  0.810

CP-SCF GRID
-----------

General Integration Accuracy     IntAcc      ... 3.467
Radial Grid Type                 RadialGrid  ... OptM3 with GC (2021)
Angular Grid (max. ang.)         AngularGrid ... 1 (Lebedev-50)
Angular grid pruning method      GridPruning ... 4 (adaptive)
Weight generation scheme         WeightScheme... Becke
Basis function cutoff            BFCut       ... 1.0000e-10
Integration weight cutoff        WCut        ... 1.0000e-14
Angular grids for H and He will be reduced by one unit
Partially contracted basis set               ... off
Rotationally invariant grid construction     ... off

Total number of grid points                  ...     2335
Total number of batches                      ...       38
Average number of points per batch           ...       61
Average number of grid points per atom       ...      584

CP-SCF GRIDX
------------

General Integration Accuracy     IntAcc      ... 3.067
Radial Grid Type                 RadialGrid  ... OptM3 with GC (2021)
Angular Grid (max. ang.)         AngularGrid ... 1 (Lebedev-50)
Angular grid pruning method      GridPruning ... 4 (adaptive)
Weight generation scheme         WeightScheme... Becke
Basis function cutoff            BFCut       ... 1.0000e-10
Integration weight cutoff        WCut        ... 1.0000e-14
Angular grids for H and He will be reduced by one unit
Partially contracted basis set               ... on
Rotationally invariant grid construction     ... off

Total number of grid points                  ...     1071
Total number of batches                      ...       20
Average number of points per batch           ...       53
Average number of grid points per atom       ...      268

Memory available               ... 968.0 MB
Memory needed per perturbation ...   0.4 MB
Perturbations treated per batch... 3
Number of batches              ... 1
     CP-SCF ITERATION   0:   6.6828e-02 (   0.1 sec   0/  3 done)
     CP-SCF ITERATION   1:   2.7859e-03 (   0.1 sec   1/  3 done)
     CP-SCF ITERATION   2:   2.4809e-04 (   0.1 sec   3/  3 done)
                    *** THE CP-SCF HAS CONVERGED ***

Forming final perturbed densities           ... done
Transforming perturbed density to AO basis  ... done

 Raw HFC matrix (all values in MHz): 
 -----------------------------------
               -68.2300              38.9936               2.5974
                38.9933             -67.1238              -4.5853
                 2.5973              -4.5854             -66.6668

 A(FC)         -67.3541             -67.3541             -67.3541
 A(SD)          38.7176               1.2655             -39.9830
 A(ORB+DIA)      0.0121              -0.0006               0.0303    A(PC) =   0.0139
 A(ORB)          0.0071               0.0006               0.0289    A(PC) =   0.0122
 A(DIA)          0.0050              -0.0012               0.0014    A(PC) =   0.0017
             ----------           ----------           ----------
 A(Tot)        -28.6245             -66.0893            -107.3069    A(iso)=  -67.3402
 Orientation: 
  X           0.6997932           -0.1150145           -0.7050256
  Y           0.7133234            0.0597349            0.6982846
  Z          -0.0381982           -0.9915661            0.1238447

Notes:  (1) The A matrix conforms to the "SAI" spin Hamiltonian convention.
        (2) Tensor is right-handed.

 -----------------------------------------------------------
 Nucleus   2H : A:ISTP=    1 I=  0.5 P=533.5514 MHz/au**3
                Q:ISTP=    2 I=  1.0 Q=  0.0029 barn     
 -----------------------------------------------------------
 Solving for nuclear perturbation:
Forming RHS of the CP-SCF equations         ... 
Calc. nucleus orbit integrals (SHARK)       ... done

------------------------------------------------------------------------------
                           ORCA CP-SCF CALCULATION
------------------------------------------------------------------------------

Input orbitals are from        ... /home/rwth0701/scratch/cs681498/orcajob__30556388-4Vua/11448.gbw
Input Perturbation             ... /home/rwth0701/scratch/cs681498/orcajob__30556388-4Vua/11448.pin.tmp
Wavefunction output            ... /home/rwth0701/scratch/cs681498/orcajob__30556388-4Vua/11448.pout.tmp
Perturbation mode              ... Imaginary perturbation
Solver                         ... POPLE
Max. number of iterations      ... 64
Convergence tolerance          ... 1.000e-03
Integral handling              ... Direct
DFT GridXC                     ... 1
COSX GridX                     ... 1
COSX IntAccX                   ... 3.067
COSX Algorithm                 ... Auto
Number of perturbations        ... 3
Number of operators            ... 2
Orbital ranges used for CP-SCF:
 Operator 0:  Orbitals   0...  4  to   5... 72
 Operator 1:  Orbitals   0...  3  to   4... 72
Variables per perturbation     ... 616
DFT calculation                         ... on
XC functional terms                     ... off
Hybrid DFT                              ... on
   Exchange mixing (SCF)                ...  0.200
   Exchange mixing (CP-SCF)             ...  0.200
   GGA exch. scaling(SCF)               ...  0.720
   GGA exch. scaling (CP-SCF)           ...  0.720
   GGA corr. scaling (SCF)              ...  0.810
   GGA corr. scaling (CP-SCF)           ...  0.810

CP-SCF GRID
-----------

General Integration Accuracy     IntAcc      ... 3.467
Radial Grid Type                 RadialGrid  ... OptM3 with GC (2021)
Angular Grid (max. ang.)         AngularGrid ... 1 (Lebedev-50)
Angular grid pruning method      GridPruning ... 4 (adaptive)
Weight generation scheme         WeightScheme... Becke
Basis function cutoff            BFCut       ... 1.0000e-10
Integration weight cutoff        WCut        ... 1.0000e-14
Angular grids for H and He will be reduced by one unit
Partially contracted basis set               ... off
Rotationally invariant grid construction     ... off

Total number of grid points                  ...     2335
Total number of batches                      ...       38
Average number of points per batch           ...       61
Average number of grid points per atom       ...      584

CP-SCF GRIDX
------------

General Integration Accuracy     IntAcc      ... 3.067
Radial Grid Type                 RadialGrid  ... OptM3 with GC (2021)
Angular Grid (max. ang.)         AngularGrid ... 1 (Lebedev-50)
Angular grid pruning method      GridPruning ... 4 (adaptive)
Weight generation scheme         WeightScheme... Becke
Basis function cutoff            BFCut       ... 1.0000e-10
Integration weight cutoff        WCut        ... 1.0000e-14
Angular grids for H and He will be reduced by one unit
Partially contracted basis set               ... on
Rotationally invariant grid construction     ... off

Total number of grid points                  ...     1071
Total number of batches                      ...       20
Average number of points per batch           ...       53
Average number of grid points per atom       ...      268

Memory available               ... 967.8 MB
Memory needed per perturbation ...   0.4 MB
Perturbations treated per batch... 3
Number of batches              ... 1
     CP-SCF ITERATION   0:   6.2525e-02 (   0.1 sec   0/  3 done)
     CP-SCF ITERATION   1:   2.3738e-03 (   0.1 sec   1/  3 done)
     CP-SCF ITERATION   2:   1.6716e-04 (   0.1 sec   3/  3 done)
                    *** THE CP-SCF HAS CONVERGED ***

Forming final perturbed densities           ... done
Transforming perturbed density to AO basis  ... done

 Raw HFC matrix (all values in MHz): 
 -----------------------------------
               -30.2213              -6.0529              -3.3686
                -6.0531            -103.6573              -2.1770
                -3.3686              -2.1770             -67.3444

 A(FC)         -67.0884             -67.0884             -67.0884
 A(SD)          37.6165              -0.3605             -37.2560
 A(ORB+DIA)      0.0136              -0.0007               0.0293    A(PC) =   0.0141
 A(ORB)          0.0090               0.0004               0.0281    A(PC) =   0.0125
 A(DIA)          0.0045              -0.0011               0.0013    A(PC) =   0.0016
             ----------           ----------           ----------
 A(Tot)        -29.4583             -67.4496            -104.3151    A(iso)=  -67.0743
 Orientation: 
  X           0.9933789           -0.0781240            0.0842322
  Y          -0.0785770            0.0728405            0.9942434
  Z          -0.0838098           -0.9942791            0.0662194

Notes:  (1) The A matrix conforms to the "SAI" spin Hamiltonian convention.
        (2) Tensor is right-handed.

 -----------------------------------------------------------
 Nucleus   3H : A:ISTP=    1 I=  0.5 P=533.5514 MHz/au**3
                Q:ISTP=    2 I=  1.0 Q=  0.0029 barn     
 -----------------------------------------------------------
 Solving for nuclear perturbation:
Forming RHS of the CP-SCF equations         ... 
Calc. nucleus orbit integrals (SHARK)       ... done

------------------------------------------------------------------------------
                           ORCA CP-SCF CALCULATION
------------------------------------------------------------------------------

Input orbitals are from        ... /home/rwth0701/scratch/cs681498/orcajob__30556388-4Vua/11448.gbw
Input Perturbation             ... /home/rwth0701/scratch/cs681498/orcajob__30556388-4Vua/11448.pin.tmp
Wavefunction output            ... /home/rwth0701/scratch/cs681498/orcajob__30556388-4Vua/11448.pout.tmp
Perturbation mode              ... Imaginary perturbation
Solver                         ... POPLE
Max. number of iterations      ... 64
Convergence tolerance          ... 1.000e-03
Integral handling              ... Direct
DFT GridXC                     ... 1
COSX GridX                     ... 1
COSX IntAccX                   ... 3.067
COSX Algorithm                 ... Auto
Number of perturbations        ... 3
Number of operators            ... 2
Orbital ranges used for CP-SCF:
 Operator 0:  Orbitals   0...  4  to   5... 72
 Operator 1:  Orbitals   0...  3  to   4... 72
Variables per perturbation     ... 616
DFT calculation                         ... on
XC functional terms                     ... off
Hybrid DFT                              ... on
   Exchange mixing (SCF)                ...  0.200
   Exchange mixing (CP-SCF)             ...  0.200
   GGA exch. scaling(SCF)               ...  0.720
   GGA exch. scaling (CP-SCF)           ...  0.720
   GGA corr. scaling (SCF)              ...  0.810
   GGA corr. scaling (CP-SCF)           ...  0.810

CP-SCF GRID
-----------

General Integration Accuracy     IntAcc      ... 3.467
Radial Grid Type                 RadialGrid  ... OptM3 with GC (2021)
Angular Grid (max. ang.)         AngularGrid ... 1 (Lebedev-50)
Angular grid pruning method      GridPruning ... 4 (adaptive)
Weight generation scheme         WeightScheme... Becke
Basis function cutoff            BFCut       ... 1.0000e-10
Integration weight cutoff        WCut        ... 1.0000e-14
Angular grids for H and He will be reduced by one unit
Partially contracted basis set               ... off
Rotationally invariant grid construction     ... off

Total number of grid points                  ...     2335
Total number of batches                      ...       38
Average number of points per batch           ...       61
Average number of grid points per atom       ...      584

CP-SCF GRIDX
------------

General Integration Accuracy     IntAcc      ... 3.067
Radial Grid Type                 RadialGrid  ... OptM3 with GC (2021)
Angular Grid (max. ang.)         AngularGrid ... 1 (Lebedev-50)
Angular grid pruning method      GridPruning ... 4 (adaptive)
Weight generation scheme         WeightScheme... Becke
Basis function cutoff            BFCut       ... 1.0000e-10
Integration weight cutoff        WCut        ... 1.0000e-14
Angular grids for H and He will be reduced by one unit
Partially contracted basis set               ... on
Rotationally invariant grid construction     ... off

Total number of grid points                  ...     1071
Total number of batches                      ...       20
Average number of points per batch           ...       53
Average number of grid points per atom       ...      268

Memory available               ... 967.7 MB
Memory needed per perturbation ...   0.4 MB
Perturbations treated per batch... 3
Number of batches              ... 1
     CP-SCF ITERATION   0:   6.2865e-02 (   0.1 sec   0/  3 done)
     CP-SCF ITERATION   1:   2.2073e-03 (   0.1 sec   1/  3 done)
     CP-SCF ITERATION   2:   1.8776e-04 (   0.1 sec   3/  3 done)
                    *** THE CP-SCF HAS CONVERGED ***

Forming final perturbed densities           ... done
Transforming perturbed density to AO basis  ... done

 Raw HFC matrix (all values in MHz): 
 -----------------------------------
               -96.5597             -20.1377               1.7684
               -20.1377             -30.3865               5.2958
                 1.7684               5.2959             -61.3266

 A(FC)         -62.7721             -62.7721             -62.7721
 A(SD)          38.5962               1.1097             -39.7059
 A(ORB+DIA)      0.0126              -0.0006               0.0316    A(PC) =   0.0145
 A(ORB)          0.0077               0.0005               0.0302    A(PC) =   0.0128
 A(DIA)          0.0049              -0.0011               0.0014    A(PC) =   0.0017
             ----------           ----------           ----------
 A(Tot)        -24.1633             -61.6631            -102.4464    A(iso)=  -62.7576
 Orientation: 
  X          -0.2631136            0.1070354            0.9588090
  Y           0.9567858           -0.0986031            0.2735659
  Z           0.1238228            0.9893538           -0.0764662

Notes:  (1) The A matrix conforms to the "SAI" spin Hamiltonian convention.
        (2) Tensor is right-handed.

 -----------------------------------------------------------
 Nucleus   0C : A:ISTP=   13 I=  0.5 P=134.1903 MHz/au**3
                Q:ISTP=   13 I=  0.5 Q=  0.0000 barn     
 -----------------------------------------------------------
 Solving for nuclear perturbation:
Forming RHS of the CP-SCF equations         ... 
Calc. nucleus orbit integrals (SHARK)       ... done

------------------------------------------------------------------------------
                           ORCA CP-SCF CALCULATION
------------------------------------------------------------------------------

Input orbitals are from        ... /home/rwth0701/scratch/cs681498/orcajob__30556388-4Vua/11448.gbw
Input Perturbation             ... /home/rwth0701/scratch/cs681498/orcajob__30556388-4Vua/11448.pin.tmp
Wavefunction output            ... /home/rwth0701/scratch/cs681498/orcajob__30556388-4Vua/11448.pout.tmp
Perturbation mode              ... Imaginary perturbation
Solver                         ... POPLE
Max. number of iterations      ... 64
Convergence tolerance          ... 1.000e-03
Integral handling              ... Direct
DFT GridXC                     ... 1
COSX GridX                     ... 1
COSX IntAccX                   ... 3.067
COSX Algorithm                 ... Auto
Number of perturbations        ... 3
Number of operators            ... 2
Orbital ranges used for CP-SCF:
 Operator 0:  Orbitals   0...  4  to   5... 72
 Operator 1:  Orbitals   0...  3  to   4... 72
Variables per perturbation     ... 616
DFT calculation                         ... on
XC functional terms                     ... off
Hybrid DFT                              ... on
   Exchange mixing (SCF)                ...  0.200
   Exchange mixing (CP-SCF)             ...  0.200
   GGA exch. scaling(SCF)               ...  0.720
   GGA exch. scaling (CP-SCF)           ...  0.720
   GGA corr. scaling (SCF)              ...  0.810
   GGA corr. scaling (CP-SCF)           ...  0.810

CP-SCF GRID
-----------

General Integration Accuracy     IntAcc      ... 3.467
Radial Grid Type                 RadialGrid  ... OptM3 with GC (2021)
Angular Grid (max. ang.)         AngularGrid ... 1 (Lebedev-50)
Angular grid pruning method      GridPruning ... 4 (adaptive)
Weight generation scheme         WeightScheme... Becke
Basis function cutoff            BFCut       ... 1.0000e-10
Integration weight cutoff        WCut        ... 1.0000e-14
Angular grids for H and He will be reduced by one unit
Partially contracted basis set               ... off
Rotationally invariant grid construction     ... off

Total number of grid points                  ...     2335
Total number of batches                      ...       38
Average number of points per batch           ...       61
Average number of grid points per atom       ...      584

CP-SCF GRIDX
------------

General Integration Accuracy     IntAcc      ... 3.067
Radial Grid Type                 RadialGrid  ... OptM3 with GC (2021)
Angular Grid (max. ang.)         AngularGrid ... 1 (Lebedev-50)
Angular grid pruning method      GridPruning ... 4 (adaptive)
Weight generation scheme         WeightScheme... Becke
Basis function cutoff            BFCut       ... 1.0000e-10
Integration weight cutoff        WCut        ... 1.0000e-14
Angular grids for H and He will be reduced by one unit
Partially contracted basis set               ... on
Rotationally invariant grid construction     ... off

Total number of grid points                  ...     1071
Total number of batches                      ...       20
Average number of points per batch           ...       53
Average number of grid points per atom       ...      268

Memory available               ... 967.6 MB
Memory needed per perturbation ...   0.4 MB
Perturbations treated per batch... 3
Number of batches              ... 1
     CP-SCF ITERATION   0:   1.1260e+00 (   0.1 sec   0/  3 done)
     CP-SCF ITERATION   1:   4.2848e-02 (   0.1 sec   0/  3 done)
     CP-SCF ITERATION   2:   3.1817e-03 (   0.1 sec   0/  3 done)
     CP-SCF ITERATION   3:   1.9037e-04 (   0.1 sec   3/  3 done)
                    *** THE CP-SCF HAS CONVERGED ***

Forming final perturbed densities           ... done
Transforming perturbed density to AO basis  ... done

 Raw HFC matrix (all values in MHz): 
 -----------------------------------
                 7.8872              -2.2716              23.9256
                -2.2716               6.8929             -18.0311
                23.9256             -18.0311             243.2254

 A(FC)          86.1189              86.1189              86.1189
 A(SD)         -80.9070             -79.9947             160.9017
 A(ORB+DIA)     -0.1669              -0.1715              -0.0127    A(PC) =  -0.1170
 A(ORB)         -0.1673              -0.1719              -0.0126    A(PC) =  -0.1173
 A(DIA)          0.0004               0.0004              -0.0001    A(PC) =   0.0002
             ----------           ----------           ----------
 A(Tot)          5.0450               5.9527             247.0078    A(iso)=   86.0018
 Orientation: 
  X           0.7236626           -0.6828728            0.0999853
  Y           0.6898503            0.7200098           -0.0754481
  Z          -0.0204690            0.1235739            0.9921242

Notes:  (1) The A matrix conforms to the "SAI" spin Hamiltonian convention.
        (2) Tensor is right-handed.


--------------------------------------------------------------------------------
----------------------------------------------------------------------------
                           ORCA EULER ANGLE PROGRAM
----------------------------------------------------------------------------

Only g-tensor available        -->  using g-tensor as reference tensor

Reference tensor               ...  g

g-tensor ordering              ...  |g_min> --> |gx>
                                    |g_mid> --> |gy>
                                    |g_max> --> |gz>

A- and EFG-tensor ordering     ...  the axes |Ax>, |Qx>, |Ay>, etc. are assigned
                                    such that the Euler rotation is minimal. You
                                    can find the respective eigenvalues as Ax,
                                    EFGx, Ay, etc. in the tables below.
                                    The relation of |Ax>, |Ay>,  etc. to Amin, Amid, etc.
                                    (as printed in the ORCA EPR/NMR CALCULATION Output)
                                    is obtained in the detailed printout.

Euler rotation around          ...  z - y - z
   First rotation              -->  by alpha around z
   Second rotation             -->  by beta around y'
   Third rotation              -->  by gamma around z''
   Positive / Negative angle   -->  clockwise / counterclockwise rotation

Plot EFG-tensors                    (-)
Plot HFC-tensors                    (-)
Detailed Printout                   (-)

-------------------------------------------------------------------------
          Euler rotation of hyperfine tensor to g-tensor
-------------------------------------------------------------------------

-------------------------------------------------------------------
 Atom  |   Alpha    Beta    Gamma   |   Ax       Ay       Az 
       |          [degrees]         |           [MHz]         
-------------------------------------------------------------------
  1H       96.4     17.8    -97.3     -66.09  -107.31   -28.62
  2H      -89.5     32.2     88.1     -67.45  -104.32   -29.46
  3H      -92.5     11.9     93.1     -61.66   -24.16  -102.45
  0C       92.8     16.0    -93.5     247.01     5.95     5.04
-------------------------------------------------------------------


Maximum memory used throughout the entire EPRNMR-calculation: 67.6 MB

Timings for individual modules:

Sum of individual times         ...       18.029 sec (=   0.300 min)
GTO integral calculation        ...        2.271 sec (=   0.038 min)  12.6 %
Spin-Orbit-Coupling Matrices    ...        2.144 sec (=   0.036 min)  11.9 %
SCF iterations                  ...        6.835 sec (=   0.114 min)  37.9 %
EPR/NMR calculation             ...        6.779 sec (=   0.113 min)  37.6 %
                             ****ORCA TERMINATED NORMALLY****
TOTAL RUN TIME: 0 days 0 hours 0 minutes 20 seconds 350 msec
