Job execution start: Mon Oct 24 18:40:48 CEST 2022
Shared library path: /home/cs681498/orca:/opt/MPI/openmpi-4.1.1/linux/gcc_4.8.5/lib:/opt/MPI/openmpi-4.1.1/linux/gcc_4.8.5/lib/lib32
Slurm Job ID is: 30556152
Slurm Job name is: 2873
ncm0257

                                 *****************
                                 * O   R   C   A *
                                 *****************

                                            #,                                       
                                            ###                                      
                                            ####                                     
                                            #####                                    
                                            ######                                   
                                           ########,                                 
                                     ,,################,,,,,                         
                               ,,#################################,,                 
                          ,,##########################################,,             
                       ,#########################################, ''#####,          
                    ,#############################################,,   '####,        
                  ,##################################################,,,,####,       
                ,###########''''           ''''###############################       
              ,#####''   ,,,,##########,,,,          '''####'''          '####       
            ,##' ,,,,###########################,,,                        '##       
           ' ,,###''''                  '''############,,,                           
         ,,##''                                '''############,,,,        ,,,,,,###''
      ,#''                                            '''#######################'''  
     '                                                          ''''####''''         
             ,#######,   #######,   ,#######,      ##                                
            ,#'     '#,  ##    ##  ,#'     '#,    #''#        ######   ,####,        
            ##       ##  ##   ,#'  ##            #'  '#       #        #'  '#        
            ##       ##  #######   ##           ,######,      #####,   #    #        
            '#,     ,#'  ##    ##  '#,     ,#' ,#      #,         ##   #,  ,#        
             '#######'   ##     ##  '#######'  #'      '#     #####' # '####'        



                  #######################################################
                  #                        -***-                        #
                  #          Department of theory and spectroscopy      #
                  #    Directorship and core code : Frank Neese         #
                  #        Max Planck Institute fuer Kohlenforschung    #
                  #                Kaiser Wilhelm Platz 1               #
                  #                 D-45470 Muelheim/Ruhr               #
                  #                      Germany                        #
                  #                                                     #
                  #                  All rights reserved                #
                  #                        -***-                        #
                  #######################################################


                         Program Version 5.0.3 -  RELEASE  -


 With contributions from (in alphabetic order):
   Daniel Aravena         : Magnetic Suceptibility
   Michael Atanasov       : Ab Initio Ligand Field Theory (pilot matlab implementation)
   Alexander A. Auer      : GIAO ZORA, VPT2 properties, NMR spectrum
   Ute Becker             : Parallelization
   Giovanni Bistoni       : ED, misc. LED, open-shell LED, HFLD
   Martin Brehm           : Molecular dynamics
   Dmytro Bykov           : SCF Hessian
   Vijay G. Chilkuri      : MRCI spin determinant printing, contributions to CSF-ICE
   Dipayan Datta          : RHF DLPNO-CCSD density
   Achintya Kumar Dutta   : EOM-CC, STEOM-CC
   Dmitry Ganyushin       : Spin-Orbit,Spin-Spin,Magnetic field MRCI
   Miquel Garcia          : C-PCM and meta-GGA Hessian, CC/C-PCM, Gaussian charge scheme
   Yang Guo               : DLPNO-NEVPT2, F12-NEVPT2, CIM, IAO-localization
   Andreas Hansen         : Spin unrestricted coupled pair/coupled cluster methods
   Benjamin Helmich-Paris : MC-RPA, TRAH-SCF, COSX integrals
   Lee Huntington         : MR-EOM, pCC
   Robert Izsak           : Overlap fitted RIJCOSX, COSX-SCS-MP3, EOM
   Marcus Kettner         : VPT2
   Christian Kollmar      : KDIIS, OOCD, Brueckner-CCSD(T), CCSD density, CASPT2, CASPT2-K
   Simone Kossmann        : Meta GGA functionals, TD-DFT gradient, OOMP2, MP2 Hessian
   Martin Krupicka        : Initial AUTO-CI
   Lucas Lang             : DCDCAS
   Marvin Lechner         : AUTO-CI (C++ implementation), FIC-MRCC
   Dagmar Lenk            : GEPOL surface, SMD
   Dimitrios Liakos       : Extrapolation schemes; Compound Job, initial MDCI parallelization
   Dimitrios Manganas     : Further ROCIS development; embedding schemes
   Dimitrios Pantazis     : SARC Basis sets
   Anastasios Papadopoulos: AUTO-CI, single reference methods and gradients
   Taras Petrenko         : DFT Hessian,TD-DFT gradient, ASA, ECA, R-Raman, ABS, FL, XAS/XES, NRVS
   Peter Pinski           : DLPNO-MP2, DLPNO-MP2 Gradient
   Christoph Reimann      : Effective Core Potentials
   Marius Retegan         : Local ZFS, SOC
   Christoph Riplinger    : Optimizer, TS searches, QM/MM, DLPNO-CCSD(T), (RO)-DLPNO pert. Triples
   Tobias Risthaus        : Range-separated hybrids, TD-DFT gradient, RPA, STAB
   Michael Roemelt        : Original ROCIS implementation
   Masaaki Saitow         : Open-shell DLPNO-CCSD energy and density
   Barbara Sandhoefer     : DKH picture change effects
   Avijit Sen             : IP-ROCIS
   Kantharuban Sivalingam : CASSCF convergence, NEVPT2, FIC-MRCI
   Bernardo de Souza      : ESD, SOC TD-DFT
   Georgi Stoychev        : AutoAux, RI-MP2 NMR, DLPNO-MP2 response
   Willem Van den Heuvel  : Paramagnetic NMR
   Boris Wezisla          : Elementary symmetry handling
   Frank Wennmohs         : Technical directorship


 We gratefully acknowledge several colleagues who have allowed us to
 interface, adapt or use parts of their codes:
   Stefan Grimme, W. Hujo, H. Kruse, P. Pracht,  : VdW corrections, initial TS optimization,
                  C. Bannwarth, S. Ehlert          DFT functionals, gCP, sTDA/sTD-DF
   Ed Valeev, F. Pavosevic, A. Kumar             : LibInt (2-el integral package), F12 methods
   Garnet Chan, S. Sharma, J. Yang, R. Olivares  : DMRG
   Ulf Ekstrom                                   : XCFun DFT Library
   Mihaly Kallay                                 : mrcc  (arbitrary order and MRCC methods)
   Jiri Pittner, Ondrej Demel                    : Mk-CCSD
   Frank Weinhold                                : gennbo (NPA and NBO analysis)
   Christopher J. Cramer and Donald G. Truhlar   : smd solvation model
   Lars Goerigk                                  : TD-DFT with DH, B97 family of functionals
   V. Asgeirsson, H. Jonsson                     : NEB implementation
   FAccTs GmbH                                   : IRC, NEB, NEB-TS, DLPNO-Multilevel, CI-OPT
                                                   MM, QMMM, 2- and 3-layer-ONIOM, Crystal-QMMM,
                                                   LR-CPCM, SF, NACMEs, symmetry and pop. for TD-DFT,
                                                   nearIR, NL-DFT gradient (VV10), updates on ESD,
                                                   ML-optimized integration grids
   S Lehtola, MJT Oliveira, MAL Marques          : LibXC Library
   Liviu Ungur et al                             : ANISO software


 Your calculation uses the libint2 library for the computation of 2-el integrals
 For citations please refer to: http://libint.valeyev.net

 Your ORCA version has been built with support for libXC version: 5.1.0
 For citations please refer to: https://tddft.org/programs/libxc/

 This ORCA versions uses:
   CBLAS   interface :  Fast vector & matrix operations
   LAPACKE interface :  Fast linear algebra routines
   SCALAPACK package :  Parallel linear algebra routines
   Shared memory     :  Shared parallel matrices
   BLAS/LAPACK       :  OpenBLAS 0.3.15  USE64BITINT DYNAMIC_ARCH NO_AFFINITY SkylakeX SINGLE_THREADED
        Core in use  :  SkylakeX
   Copyright (c) 2011-2014, The OpenBLAS Project


================================================================================

----- Orbital basis set information -----
Your calculation utilizes the basis: EPR-III
   V. Barone, in Recent Advances in Density Functional Methods, Part 1 (ed. D. P. Chong), World Scientific, Singapore, 1995, p. 287.
   N. Rega, M. Cossi and V. Barone, J. Chem. Phys. 105, 11060 (1996).

----- AuxJ basis set information -----
Your calculation utilizes the AutoAux generation procedure.
  G. L. Stoychev, A. A. Auer, F. Neese, J. Chem. Theory Comput. 13, 554 (2017)

----- AuxC basis set information -----
Your calculation utilizes the AutoAux generation procedure.
  G. L. Stoychev, A. A. Auer, F. Neese, J. Chem. Theory Comput. 13, 554 (2017)

----- AuxJK basis set information -----
Your calculation utilizes the AutoAux generation procedure.
  G. L. Stoychev, A. A. Auer, F. Neese, J. Chem. Theory Comput. 13, 554 (2017)

================================================================================
                                        WARNINGS
                       Please study these warnings very carefully!
================================================================================


WARNING: your system is open-shell and RHF/RKS was chosen
  ===> : WILL SWITCH to UHF/UKS


INFO   : the flag for use of the SHARK integral package has been found!

================================================================================
                                       INPUT FILE
================================================================================
NAME = /home/rwth0701/scratch/cs681498/orcajob__30556152-SQEc/2873.inp
|  1> !B3LYP EPR-III Autoaux
|  2> !PAL4
|  3> 
|  4> * xyz 0 2
|  5>  C      2.5805287100    -11.9575185634     -9.7165868497
|  6>  H      3.5855559194    -12.3127740343     -9.5653907211
|  7>  H      2.5970930770    -11.1378713976    -10.4904340207
|  8>  H      1.6806887681    -12.1394005444     -9.1400735388
|  9> *
| 10> 
| 11> %EPRNMR
| 12>         GTENSOR   TRUE
| 13>         NUCLEI    = ALL H {AISO, ADIP, AORB}
| 14>         NUCLEI    = ALL C {AISO, ADIP, AORB}
| 15> END
| 16> 
| 17> 
| 18>                          ****END OF INPUT****
================================================================================

                       ****************************
                       * Single Point Calculation *
                       ****************************

---------------------------------
CARTESIAN COORDINATES (ANGSTROEM)
---------------------------------
  C      2.580529  -11.957519   -9.716587
  H      3.585556  -12.312774   -9.565391
  H      2.597093  -11.137871  -10.490434
  H      1.680689  -12.139401   -9.140074

----------------------------
CARTESIAN COORDINATES (A.U.)
----------------------------
  NO LB      ZA    FRAG     MASS         X           Y           Z
   0 C     6.0000    0    12.011    4.876493  -22.596435  -18.361688
   1 H     1.0000    0     1.008    6.775719  -23.267771  -18.075969
   2 H     1.0000    0     1.008    4.907795  -21.047527  -19.824047
   3 H     1.0000    0     1.008    3.176041  -22.940142  -17.272236

--------------------------------
INTERNAL COORDINATES (ANGSTROEM)
--------------------------------
 C      0   0   0     0.000000000000     0.00000000     0.00000000
 H      1   0   0     1.076636619544     0.00000000     0.00000000
 H      1   2   0     1.127357662289   108.81933633     0.00000000
 H      1   2   3     1.084048234026   130.15194159   192.16087920

---------------------------
INTERNAL COORDINATES (A.U.)
---------------------------
 C      0   0   0     0.000000000000     0.00000000     0.00000000
 H      1   0   0     2.034548356688     0.00000000     0.00000000
 H      1   2   0     2.130397236705   108.81933633     0.00000000
 H      1   2   3     2.048554278271   130.15194159   192.16087920

---------------------
BASIS SET INFORMATION
---------------------
There are 2 groups of distinct atoms

 Group   1 Type C   : 12s8p2d1f contracted to 8s5p2d1f pattern {51111111/41111/11/1}
 Group   2 Type H   : 7s2p contracted to 5s2p pattern {31111/11}

Atom   0C    basis set group =>   1
Atom   1H    basis set group =>   2
Atom   2H    basis set group =>   2
Atom   3H    basis set group =>   2
---------------------------------
AUXILIARY/J BASIS SET INFORMATION
---------------------------------
There are 2 groups of distinct atoms

 Group   1 Type C   : 20s17p16d8f3g contracted to 20s17p16d8f3g pattern {11111111111111111111/11111111111111111/1111111111111111/11111111/111}
 Group   2 Type H   : 17s7p3d contracted to 17s7p3d pattern {11111111111111111/1111111/111}

Atom   0C    basis set group =>   1
Atom   1H    basis set group =>   2
Atom   2H    basis set group =>   2
Atom   3H    basis set group =>   2
---------------------------------
AUXILIARY/C BASIS SET INFORMATION
---------------------------------
There are 2 groups of distinct atoms

 Group   1 Type C   : 20s17p16d8f3g contracted to 20s17p16d8f3g pattern {11111111111111111111/11111111111111111/1111111111111111/11111111/111}
 Group   2 Type H   : 17s7p3d contracted to 17s7p3d pattern {11111111111111111/1111111/111}

Atom   0C    basis set group =>   1
Atom   1H    basis set group =>   2
Atom   2H    basis set group =>   2
Atom   3H    basis set group =>   2
----------------------------------
AUXILIARY/JK BASIS SET INFORMATION
----------------------------------
There are 2 groups of distinct atoms

 Group   1 Type C   : 20s17p16d8f3g contracted to 20s17p16d8f3g pattern {11111111111111111111/11111111111111111/1111111111111111/11111111/111}
 Group   2 Type H   : 17s7p3d contracted to 17s7p3d pattern {11111111111111111/1111111/111}

Atom   0C    basis set group =>   1
Atom   1H    basis set group =>   2
Atom   2H    basis set group =>   2
Atom   3H    basis set group =>   2


           ************************************************************
           *        Program running with 4 parallel MPI-processes     *
           *              working on a common directory               *
           ************************************************************
------------------------------------------------------------------------------
                           ORCA GTO INTEGRAL CALCULATION
                           -- RI-GTO INTEGRALS CHOSEN --
------------------------------------------------------------------------------
------------------------------------------------------------------------------
                   ___                                                        
                  /   \      - P O W E R E D   B Y -                         
                 /     \                                                     
                 |  |  |   _    _      __       _____    __    __             
                 |  |  |  | |  | |    /  \     |  _  \  |  |  /  |          
                  \  \/   | |  | |   /    \    | | | |  |  | /  /          
                 / \  \   | |__| |  /  /\  \   | |_| |  |  |/  /          
                |  |  |   |  __  | /  /__\  \  |    /   |      \           
                |  |  |   | |  | | |   __   |  |    \   |  |\   \          
                \     /   | |  | | |  |  |  |  | |\  \  |  | \   \       
                 \___/    |_|  |_| |__|  |__|  |_| \__\ |__|  \__/        
                                                                              
                      - O R C A' S   B I G   F R I E N D -                    
                                      &                                       
                       - I N T E G R A L  F E E D E R -                       
                                                                              
 v1 FN, 2020, v2 2021                                                         
------------------------------------------------------------------------------


Reading SHARK input file /home/rwth0701/scratch/cs681498/orcajob__30556152-SQEc/2873.SHARKINP.tmp ... ok
----------------------
SHARK INTEGRAL PACKAGE
----------------------

Number of atoms                             ...      4
Number of basis functions                   ...     73
Number of shells                            ...     37
Maximum angular momentum                    ...      3
Integral batch strategy                     ... SHARK/LIBINT Hybrid
RI-J (if used) integral strategy            ... SPLIT-RIJ (Revised 2003 algorithm where possible)
Printlevel                                  ...      1
Contraction scheme used                     ... SEGMENTED contraction
Coulomb Range Separation                    ... NOT USED
Exchange Range Separation                   ... NOT USED
Finite Nucleus Model                        ... NOT USED
Auxiliary Coulomb fitting basis             ... AVAILABLE
   # of basis functions in Aux-J            ...    393
   # of shells in Aux-J                     ...    145
   Maximum angular momentum in Aux-J        ...      4
Auxiliary J/K fitting basis                 ... AVAILABLE
   # of basis functions in Aux-JK           ...    393
   # of shells in Aux-JK                    ...    145
   Maximum angular momentum in Aux-JK       ...      4
Auxiliary Correlation fitting basis         ... AVAILABLE
   # of basis functions in Aux-C            ...    393
   # of shells in Aux-C                     ...    145
   Maximum angular momentum in Aux-C        ...      4
Auxiliary 'external' fitting basis          ... NOT available
Integral threshold                          ...     1.000000e-10
Primitive cut-off                           ...     1.000000e-11
Primitive pair pre-selection threshold      ...     1.000000e-11

Calculating pre-screening integrals         ... done (  0.0 sec) Dimension = 37
Organizing shell pair data                  ... done (  0.0 sec)
Shell pair information
Total number of shell pairs                 ...       703
Shell pairs after pre-screening             ...       688
Total number of primitive shell pairs       ...      1300
Primitive shell pairs kept                  ...      1183
          la=0 lb=0:    261 shell pairs
          la=1 lb=0:    253 shell pairs
          la=1 lb=1:     66 shell pairs
          la=2 lb=0:     46 shell pairs
          la=2 lb=1:     22 shell pairs
          la=2 lb=2:      3 shell pairs
          la=3 lb=0:     23 shell pairs
          la=3 lb=1:     11 shell pairs
          la=3 lb=2:      2 shell pairs
          la=3 lb=3:      1 shell pairs

Calculating one electron integrals          ... done (  0.0 sec)
Calculating RI/J V-Matrix + Cholesky decomp.... done (  0.2 sec)
Calculating RI/JK V-Matrix + Cholesky decomp... done (  0.2 sec)
Calculating RI/C V-Matrix + Cholesky decomp.... done (  0.1 sec)
Calculating Nuclear repulsion               ... done (  0.0 sec) ENN=      9.535970693888 Eh

SHARK setup successfully completed in   1.0 seconds

Maximum memory used throughout the entire GTOINT-calculation: 13.7 MB


           ************************************************************
           *        Program running with 4 parallel MPI-processes     *
           *              working on a common directory               *
           ************************************************************
-------------------------------------------------------------------------------
                                 ORCA SCF
-------------------------------------------------------------------------------

------------
SCF SETTINGS
------------
Hamiltonian:
 Density Functional     Method          .... DFT(GTOs)
 Exchange Functional    Exchange        .... B88
   X-Alpha parameter    XAlpha          ....  0.666667
   Becke's b parameter  XBeta           ....  0.004200
 Correlation Functional Correlation     .... LYP
 LDA part of GGA corr.  LDAOpt          .... VWN-5
 Gradients option       PostSCFGGA      .... off
 Hybrid DFT is turned on
   Fraction HF Exchange ScalHFX         ....  0.200000
   Scaling of DF-GGA-X  ScalDFX         ....  0.720000
   Scaling of DF-GGA-C  ScalDFC         ....  0.810000
   Scaling of DF-LDA-C  ScalLDAC        ....  1.000000
   Perturbative correction              ....  0.000000
   Density functional embedding theory  .... OFF
   NL short-range parameter             ....  4.800000
 RI-approximation to the Coulomb term is turned on
   Number of AuxJ basis functions       .... 393
   RIJ-COSX (HFX calculated with COS-X)).... on


General Settings:
 Integral files         IntName         .... /home/rwth0701/scratch/cs681498/orcajob__30556152-SQEc/2873
 Hartree-Fock type      HFTyp           .... UHF
 Total Charge           Charge          ....    0
 Multiplicity           Mult            ....    2
 Number of Electrons    NEL             ....    9
 Basis Dimension        Dim             ....   73
 Nuclear Repulsion      ENuc            ....      9.5359706939 Eh

Convergence Acceleration:
 DIIS                   CNVDIIS         .... on
   Start iteration      DIISMaxIt       ....    12
   Startup error        DIISStart       ....  0.200000
   # of expansion vecs  DIISMaxEq       ....     5
   Bias factor          DIISBfac        ....   1.050
   Max. coefficient     DIISMaxC        ....  10.000
 Trust-Rad. Augm. Hess. CNVTRAH         .... auto
   Auto Start mean grad. ratio tolernc. ....  1.125000
   Auto Start start iteration           ....    20
   Auto Start num. interpolation iter.  ....    10
   Max. Number of Micro iterations      ....    16
   Max. Number of Macro iterations      .... Maxiter - #DIIS iter
   Number of Davidson start vectors     ....     2
   Converg. threshold I  (grad. norm)   ....   5.000e-05
   Converg. threshold II (energy diff.) ....   1.000e-06
   Grad. Scal. Fac. for Micro threshold ....   0.100
   Minimum threshold for Micro iter.    ....   0.010
   NR start threshold (gradient norm)   ....   0.001
   Initial trust radius                 ....   0.400
   Minimum AH scaling param. (alpha)    ....   1.000
   Maximum AH scaling param. (alpha)    .... 1000.000
   Orbital update algorithm             .... Taylor
   White noise on init. David. guess    .... on
   Maximum white noise                  ....   0.010
   Quad. conv. algorithm                .... NR
 SOSCF                  CNVSOSCF        .... off
 Level Shifting         CNVShift        .... on
   Level shift para.    LevelShift      ....    0.2500
   Turn off err/grad.   ShiftErr        ....    0.0010
 Zerner damping         CNVZerner       .... off
 Static damping         CNVDamp         .... on
   Fraction old density DampFac         ....    0.7000
   Max. Damping (<1)    DampMax         ....    0.9800
   Min. Damping (>=0)   DampMin         ....    0.0000
   Turn off err/grad.   DampErr         ....    0.1000
 Fernandez-Rico         CNVRico         .... off

SCF Procedure:
 Maximum # iterations   MaxIter         ....   125
 SCF integral mode      SCFMode         .... Direct
   Integral package                     .... SHARK and LIBINT hybrid scheme
 Reset frequency        DirectResetFreq ....    20
 Integral Threshold     Thresh          ....  1.000e-10 Eh
 Primitive CutOff       TCut            ....  1.000e-11 Eh

Convergence Tolerance:
 Convergence Check Mode ConvCheckMode   .... Total+1el-Energy
 Convergence forced     ConvForced      .... 0
 Energy Change          TolE            ....  1.000e-06 Eh
 1-El. energy change                    ....  1.000e-03 Eh
 DIIS Error             TolErr          ....  1.000e-06


Diagonalization of the overlap matrix:
Smallest eigenvalue                        ... 1.636e-03
Time for diagonalization                   ...    0.001 sec
Threshold for overlap eigenvalues          ... 1.000e-08
Number of eigenvalues below threshold      ... 0
Time for construction of square roots      ...    0.013 sec
Total time needed                          ...    0.029 sec

Time for model grid setup =    0.096 sec

------------------------------
INITIAL GUESS: MODEL POTENTIAL
------------------------------
Loading Hartree-Fock densities                     ... done
Calculating cut-offs                               ... done
Initializing the effective Hamiltonian             ... done
Setting up the integral package (SHARK)            ... done
Starting the Coulomb interaction                   ... done (   0.1 sec)
Reading the grid                                   ... done
Mapping shells                                     ... done
Starting the XC term evaluation                    ... done (   0.0 sec)
  promolecular density results
     # of electrons  =      8.998447131
     EX              =     -5.963580061
     EC              =     -0.259823260
     EX+EC           =     -6.223403321
Transforming the Hamiltonian                       ... done (   0.0 sec)
Diagonalizing the Hamiltonian                      ... done (   0.0 sec)
Back transforming the eigenvectors                 ... done (   0.0 sec)
Now organizing SCF variables                       ... done
                      ------------------
                      INITIAL GUESS DONE (   0.2 sec)
                      ------------------
-------------------
DFT GRID GENERATION
-------------------

General Integration Accuracy     IntAcc      ... 4.388
Radial Grid Type                 RadialGrid  ... OptM3 with GC (2021)
Angular Grid (max. ang.)         AngularGrid ... 4 (Lebedev-302)
Angular grid pruning method      GridPruning ... 4 (adaptive)
Weight generation scheme         WeightScheme... Becke
Basis function cutoff            BFCut       ... 1.0000e-10
Integration weight cutoff        WCut        ... 1.0000e-14
Angular grids for H and He will be reduced by one unit
Partially contracted basis set               ... off
Rotationally invariant grid construction     ... off

Total number of grid points                  ...    17061
Total number of batches                      ...      269
Average number of points per batch           ...       63
Average number of grid points per atom       ...     4265
Time for grid setup =    0.213 sec

--------------------
COSX GRID GENERATION
--------------------

GRIDX 1
-------
General Integration Accuracy     IntAcc      ... 3.816
Radial Grid Type                 RadialGrid  ... OptM3 with GC (2021)
Angular Grid (max. ang.)         AngularGrid ... 1 (Lebedev-50)
Angular grid pruning method      GridPruning ... 4 (adaptive)
Weight generation scheme         WeightScheme... Becke
Basis function cutoff            BFCut       ... 1.0000e-10
Integration weight cutoff        WCut        ... 1.0000e-14
Angular grids for H and He will be reduced by one unit
Partially contracted basis set               ... on
Rotationally invariant grid construction     ... off

Total number of grid points                  ...     2134
Total number of batches                      ...       35
Average number of points per batch           ...       60
Average number of grid points per atom       ...      534
UseSFitting                                  ... on

GRIDX 2
-------
General Integration Accuracy     IntAcc      ... 4.020
Radial Grid Type                 RadialGrid  ... OptM3 with GC (2021)
Angular Grid (max. ang.)         AngularGrid ... 2 (Lebedev-110)
Angular grid pruning method      GridPruning ... 4 (adaptive)
Weight generation scheme         WeightScheme... Becke
Basis function cutoff            BFCut       ... 1.0000e-10
Integration weight cutoff        WCut        ... 1.0000e-14
Angular grids for H and He will be reduced by one unit
Partially contracted basis set               ... on
Rotationally invariant grid construction     ... off

Total number of grid points                  ...     5058
Total number of batches                      ...       80
Average number of points per batch           ...       63
Average number of grid points per atom       ...     1264
UseSFitting                                  ... on

GRIDX 3
-------
General Integration Accuracy     IntAcc      ... 4.338
Radial Grid Type                 RadialGrid  ... OptM3 with GC (2021)
Angular Grid (max. ang.)         AngularGrid ... 3 (Lebedev-194)
Angular grid pruning method      GridPruning ... 4 (adaptive)
Weight generation scheme         WeightScheme... Becke
Basis function cutoff            BFCut       ... 1.0000e-10
Integration weight cutoff        WCut        ... 1.0000e-14
Angular grids for H and He will be reduced by one unit
Partially contracted basis set               ... on
Rotationally invariant grid construction     ... off

Total number of grid points                  ...    11741
Total number of batches                      ...      185
Average number of points per batch           ...       63
Average number of grid points per atom       ...     2935
UseSFitting                                  ... on

Time for X-Grid setup             =    0.347 sec

--------------
SCF ITERATIONS
--------------
ITER       Energy         Delta-E        Max-DP      RMS-DP      [F,P]     Damp
               ***  Starting incremental Fock matrix formation  ***
  0    -39.7845128681   0.000000000000 0.01491008  0.00048456  0.0841936 0.7000
  1    -39.8022809893  -0.017768121184 0.00933419  0.00036199  0.0441236 0.7000
                               ***Turning on DIIS***
  2    -39.8101234905  -0.007842501245 0.01527459  0.00063324  0.0177735 0.0000
  3    -39.8208657582  -0.010742267709 0.00665738  0.00027267  0.0251389 0.0000
  4    -39.8241641020  -0.003298343753 0.00254701  0.00007569  0.0046734 0.0000
  5    -39.8242975113  -0.000133409282 0.00089392  0.00003212  0.0013676 0.0000
  6    -39.8243150852  -0.000017573954 0.00050660  0.00002517  0.0005106 0.0000
               *** Restarting incremental Fock matrix formation ***
                                   *** Resetting DIIS ***
  7    -39.8243196037  -0.000004518476 0.00008169  0.00000301  0.0000793 0.0000
                 **** Energy Check signals convergence ****

               *****************************************************
               *                     SUCCESS                       *
               *           SCF CONVERGED AFTER   8 CYCLES          *
               *****************************************************

Old exchange energy                            =     -1.237513222 Eh
New exchange energy                            =     -1.237512926 Eh
Exchange energy change after final integration =      0.000000295 Eh
Total energy after final integration           =    -39.824319392 Eh
Final COS-X integration done in                =     0.174 sec

----------------
TOTAL SCF ENERGY
----------------

Total Energy       :          -39.82431939 Eh           -1083.67482 eV

Components:
Nuclear Repulsion  :            9.53597069 Eh             259.48695 eV
Electronic Energy  :          -49.36029009 Eh           -1343.16178 eV
One Electron Energy:          -71.39110974 Eh           -1942.65086 eV
Two Electron Energy:           22.03081966 Eh             599.48908 eV
Max COSX asymmetry :            0.00000007 Eh               0.00000 eV

Virial components:
Potential Energy   :          -79.38498848 Eh           -2160.17536 eV
Kinetic Energy     :           39.56066909 Eh            1076.50053 eV
Virial Ratio       :            2.00666446


DFT components:
N(Alpha)           :        4.999998948810 electrons
N(Beta)            :        4.000000038608 electrons
N(Total)           :        8.999998987418 electrons
E(X)               :       -4.899436950531 Eh       
E(C)               :       -0.308866128891 Eh       
E(XC)              :       -5.208303079422 Eh       
DFET-embed. en.    :        0.000000000000 Eh       

---------------
SCF CONVERGENCE
---------------

  Last Energy change         ...   -8.3815e-08  Tolerance :   1.0000e-06
  Last MAX-Density change    ...    0.0000e+00  Tolerance :   1.0000e-05
  Last RMS-Density change    ...    0.0000e+00  Tolerance :   1.0000e-06
  Last DIIS Error            ...    5.5220e-05  Tolerance :   1.0000e-06

             **** THE GBW FILE WAS UPDATED (/home/rwth0701/scratch/cs681498/orcajob__30556152-SQEc/2873.gbw) ****
             **** DENSITY /home/rwth0701/scratch/cs681498/orcajob__30556152-SQEc/2873.scfp WAS UPDATED ****
             **** ENERGY FILE WAS UPDATED (/home/rwth0701/scratch/cs681498/orcajob__30556152-SQEc/2873.en.tmp) ****
----------------------
UHF SPIN CONTAMINATION
----------------------

Warning: in a DFT calculation there is little theoretical justification to 
         calculate <S**2> as in Hartree-Fock theory. We will do it anyways
         but you should keep in mind that the values have only limited relevance

Expectation value of <S**2>     :     0.753752
Ideal value S*(S+1) for S=0.5   :     0.750000
Deviation                       :     0.003752

             **** THE GBW FILE WAS UPDATED (/home/rwth0701/scratch/cs681498/orcajob__30556152-SQEc/2873.gbw) ****
             **** DENSITY /home/rwth0701/scratch/cs681498/orcajob__30556152-SQEc/2873.scfp WAS UPDATED ****
----------------
ORBITAL ENERGIES
----------------
                 SPIN UP ORBITALS
  NO   OCC          E(Eh)            E(eV) 
   0   1.0000     -10.189318      -277.2654 
   1   1.0000      -0.684262       -18.6197 
   2   1.0000      -0.438871       -11.9423 
   3   1.0000      -0.398447       -10.8423 
   4   1.0000      -0.236061        -6.4235 
   5   0.0000       0.000336         0.0091 
   6   0.0000       0.034619         0.9420 
   7   0.0000       0.038760         1.0547 
   8   0.0000       0.047357         1.2887 
   9   0.0000       0.083655         2.2764 
  10   0.0000       0.088325         2.4034 
  11   0.0000       0.099645         2.7115 
  12   0.0000       0.217860         5.9283 
  13   0.0000       0.224962         6.1215 
  14   0.0000       0.247933         6.7466 
  15   0.0000       0.276212         7.5161 
  16   0.0000       0.289126         7.8675 
  17   0.0000       0.320134         8.7113 
  18   0.0000       0.337856         9.1935 
  19   0.0000       0.544849        14.8261 
  20   0.0000       0.565430        15.3861 
  21   0.0000       0.729013        19.8375 
  22   0.0000       0.742944        20.2165 
  23   0.0000       0.772672        21.0255 
  24   0.0000       0.821697        22.3595 
  25   0.0000       0.871866        23.7247 
  26   0.0000       0.915320        24.9071 
  27   0.0000       0.921409        25.0728 
  28   0.0000       0.963796        26.2262 
  29   0.0000       1.038138        28.2492 
  30   0.0000       1.064940        28.9785 
  31   0.0000       1.113742        30.3065 
  32   0.0000       1.174545        31.9610 
  33   0.0000       1.186503        32.2864 
  34   0.0000       1.430172        38.9170 
  35   0.0000       1.467022        39.9197 
  36   0.0000       1.494834        40.6765 
  37   0.0000       1.690371        45.9973 
  38   0.0000       1.729961        47.0746 
  39   0.0000       1.759374        47.8750 
  40   0.0000       2.723189        74.1017 
  41   0.0000       2.746496        74.7360 
  42   0.0000       2.857486        77.7561 
  43   0.0000       2.887931        78.5846 
  44   0.0000       2.921190        79.4896 
  45   0.0000       2.982006        81.1445 
  46   0.0000       3.002845        81.7116 
  47   0.0000       3.144346        85.5620 
  48   0.0000       3.150406        85.7269 
  49   0.0000       3.249101        88.4125 
  50   0.0000       3.263089        88.7932 
  51   0.0000       3.680450       100.1501 
  52   0.0000       3.717002       101.1448 
  53   0.0000       3.793532       103.2273 
  54   0.0000       3.882211       105.6403 
  55   0.0000       3.956776       107.6694 
  56   0.0000       4.010502       109.1313 
  57   0.0000       4.097287       111.4929 
  58   0.0000       4.151277       112.9620 
  59   0.0000       4.174424       113.5918 
  60   0.0000       4.546021       123.7035 
  61   0.0000       5.020981       136.6278 
  62   0.0000       5.314853       144.6245 
  63   0.0000       5.444782       148.1601 
  64   0.0000       5.545597       150.9034 
  65   0.0000       6.009701       163.5323 
  66   0.0000       6.131610       166.8496 
  67   0.0000       7.689106       209.2312 
  68   0.0000      29.042556       790.2881 
  69   0.0000      37.098441      1009.4999 
  70   0.0000      37.202178      1012.3227 
  71   0.0000      37.217664      1012.7441 
  72   0.0000     133.494117      3632.5596 

                 SPIN DOWN ORBITALS
  NO   OCC          E(Eh)            E(eV) 
   0   1.0000     -10.174762      -276.8694 
   1   1.0000      -0.644860       -17.5475 
   2   1.0000      -0.429599       -11.6900 
   3   1.0000      -0.388928       -10.5833 
   4   0.0000      -0.077926        -2.1205 
   5   0.0000       0.003578         0.0974 
   6   0.0000       0.034313         0.9337 
   7   0.0000       0.038386         1.0445 
   8   0.0000       0.060601         1.6490 
   9   0.0000       0.084652         2.3035 
  10   0.0000       0.093176         2.5354 
  11   0.0000       0.101184         2.7534 
  12   0.0000       0.219354         5.9689 
  13   0.0000       0.226631         6.1670 
  14   0.0000       0.266156         7.2425 
  15   0.0000       0.294722         8.0198 
  16   0.0000       0.310549         8.4505 
  17   0.0000       0.326380         8.8812 
  18   0.0000       0.350677         9.5424 
  19   0.0000       0.570583        15.5264 
  20   0.0000       0.592037        16.1102 
  21   0.0000       0.731762        19.9123 
  22   0.0000       0.744880        20.2692 
  23   0.0000       0.797141        21.6913 
  24   0.0000       0.820577        22.3290 
  25   0.0000       0.877192        23.8696 
  26   0.0000       0.919329        25.0162 
  27   0.0000       0.938210        25.5300 
  28   0.0000       0.982399        26.7324 
  29   0.0000       1.061629        28.8884 
  30   0.0000       1.120391        30.4874 
  31   0.0000       1.137023        30.9400 
  32   0.0000       1.185644        32.2630 
  33   0.0000       1.202011        32.7084 
  34   0.0000       1.441743        39.2318 
  35   0.0000       1.481947        40.3258 
  36   0.0000       1.506113        40.9834 
  37   0.0000       1.698985        46.2317 
  38   0.0000       1.738170        47.2980 
  39   0.0000       1.764813        48.0230 
  40   0.0000       2.762878        75.1817 
  41   0.0000       2.786696        75.8299 
  42   0.0000       2.860846        77.8476 
  43   0.0000       2.919360        79.4398 
  44   0.0000       2.972245        80.8789 
  45   0.0000       3.003501        81.7294 
  46   0.0000       3.044441        82.8435 
  47   0.0000       3.193437        86.8978 
  48   0.0000       3.202730        87.1507 
  49   0.0000       3.306399        89.9717 
  50   0.0000       3.320358        90.3515 
  51   0.0000       3.685402       100.2849 
  52   0.0000       3.771780       102.6353 
  53   0.0000       3.793578       103.2285 
  54   0.0000       3.884514       105.7030 
  55   0.0000       3.972550       108.0986 
  56   0.0000       4.027037       109.5813 
  57   0.0000       4.100871       111.5904 
  58   0.0000       4.173048       113.5544 
  59   0.0000       4.178469       113.7019 
  60   0.0000       4.546251       123.7098 
  61   0.0000       5.041800       137.1943 
  62   0.0000       5.315463       144.6411 
  63   0.0000       5.443228       148.1178 
  64   0.0000       5.541898       150.8027 
  65   0.0000       6.012734       163.6148 
  66   0.0000       6.134167       166.9192 
  67   0.0000       7.723930       210.1788 
  68   0.0000      29.069371       791.0178 
  69   0.0000      37.086702      1009.1805 
  70   0.0000      37.190513      1012.0053 
  71   0.0000      37.205741      1012.4197 
  72   0.0000     133.502102      3632.7769 

                    ********************************
                    * MULLIKEN POPULATION ANALYSIS *
                    ********************************

--------------------------------------------
MULLIKEN ATOMIC CHARGES AND SPIN POPULATIONS
--------------------------------------------
   0 C :   -0.428082    1.104865
   1 H :    0.145615   -0.034378
   2 H :    0.130379   -0.037681
   3 H :    0.152088   -0.032806
Sum of atomic charges         :   -0.0000000
Sum of atomic spin populations:    1.0000000

-----------------------------------------------------
MULLIKEN REDUCED ORBITAL CHARGES AND SPIN POPULATIONS
-----------------------------------------------------
CHARGE
  0 C s       :     3.339381  s :     3.339381
      pz      :     1.008995  p :     3.060866
      px      :     1.043627
      py      :     1.008244
      dz2     :     0.002113  d :     0.024910
      dxz     :     0.005149
      dyz     :     0.006659
      dx2y2   :     0.008603
      dxy     :     0.002386
      f0      :     0.000316  f :     0.002924
      f+1     :     0.000339
      f-1     :     0.000367
      f+2     :     0.000867
      f-2     :     0.000179
      f+3     :     0.000328
      f-3     :     0.000527
  1 H s       :     0.826372  s :     0.826372
      pz      :     0.008720  p :     0.028013
      px      :     0.009996
      py      :     0.009297
  2 H s       :     0.844794  s :     0.844794
      pz      :     0.009039  p :     0.024827
      px      :     0.006155
      py      :     0.009634
  3 H s       :     0.820064  s :     0.820064
      pz      :     0.009561  p :     0.027848
      px      :     0.009248
      py      :     0.009039

SPIN
  0 C s       :     0.070504  s :     0.070504
      pz      :     0.454960  p :     1.038680
      px      :     0.078785
      py      :     0.504935
      dz2     :     0.000146  d :    -0.003015
      dxz     :    -0.000380
      dyz     :    -0.002287
      dx2y2   :    -0.000690
      dxy     :     0.000195
      f0      :    -0.000219  f :    -0.001304
      f+1     :    -0.000112
      f-1     :    -0.000270
      f+2     :    -0.000197
      f-2     :    -0.000189
      f+3     :    -0.000187
      f-3     :    -0.000132
  1 H s       :    -0.044487  s :    -0.044487
      pz      :     0.004504  p :     0.010109
      px      :     0.000289
      py      :     0.005317
  2 H s       :    -0.046454  s :    -0.046454
      pz      :     0.004428  p :     0.008774
      px      :     0.000014
      py      :     0.004332
  3 H s       :    -0.043587  s :    -0.043587
      pz      :     0.004608  p :     0.010781
      px      :     0.000634
      py      :     0.005539


                     *******************************
                     * LOEWDIN POPULATION ANALYSIS *
                     *******************************

-------------------------------------------
LOEWDIN ATOMIC CHARGES AND SPIN POPULATIONS
-------------------------------------------
   0 C :   -0.164126    0.914288
   1 H :    0.046098    0.031605
   2 H :    0.066820    0.023876
   3 H :    0.051209    0.030230

----------------------------------------------------
LOEWDIN REDUCED ORBITAL CHARGES AND SPIN POPULATIONS
----------------------------------------------------
CHARGE
  0 C s       :     2.893837  s :     2.893837
      pz      :     1.023235  p :     3.171974
      px      :     1.137512
      py      :     1.011227
      dz2     :     0.009089  d :     0.090715
      dxz     :     0.020407
      dyz     :     0.018545
      dx2y2   :     0.030591
      dxy     :     0.012084
      f0      :     0.000851  f :     0.007600
      f+1     :     0.000786
      f-1     :     0.001147
      f+2     :     0.001963
      f-2     :     0.000433
      f+3     :     0.001208
      f-3     :     0.001212
  1 H s       :     0.804697  s :     0.804697
      pz      :     0.038888  p :     0.149205
      px      :     0.067072
      py      :     0.043246
  2 H s       :     0.800302  s :     0.800302
      pz      :     0.050023  p :     0.132878
      px      :     0.028128
      py      :     0.054727
  3 H s       :     0.804070  s :     0.804070
      pz      :     0.048604  p :     0.144721
      px      :     0.058298
      py      :     0.037819

SPIN
  0 C s       :     0.022044  s :     0.022044
      pz      :     0.401645  p :     0.900993
      px      :     0.051455
      py      :     0.447893
      dz2     :    -0.000427  d :    -0.007447
      dxz     :    -0.001380
      dyz     :    -0.002708
      dx2y2   :    -0.002459
      dxy     :    -0.000473
      f0      :    -0.000203  f :    -0.001301
      f+1     :    -0.000143
      f-1     :    -0.000212
      f+2     :    -0.000285
      f-2     :    -0.000125
      f+3     :    -0.000192
      f-3     :    -0.000142
  1 H s       :    -0.016559  s :    -0.016559
      pz      :     0.019552  p :     0.048164
      px      :     0.006155
      py      :     0.022456
  2 H s       :    -0.017991  s :    -0.017991
      pz      :     0.019113  p :     0.041868
      px      :     0.002071
      py      :     0.020684
  3 H s       :    -0.017311  s :    -0.017311
      pz      :     0.020295  p :     0.047541
      px      :     0.005607
      py      :     0.021639


                      *****************************
                      * MAYER POPULATION ANALYSIS *
                      *****************************

  NA   - Mulliken gross atomic population
  ZA   - Total nuclear charge
  QA   - Mulliken gross atomic charge
  VA   - Mayer's total valence
  BVA  - Mayer's bonded valence
  FA   - Mayer's free valence

  ATOM       NA         ZA         QA         VA         BVA        FA
  0 C      6.4281     6.0000    -0.4281     3.8727     2.9275     0.9452
  1 H      0.8544     1.0000     0.1456     0.9815     0.9795     0.0020
  2 H      0.8696     1.0000     0.1304     0.9800     0.9778     0.0021
  3 H      0.8479     1.0000     0.1521     0.9858     0.9838     0.0020

  Mayer bond orders larger than 0.100000
B(  0-C ,  1-H ) :   0.9758 B(  0-C ,  2-H ) :   0.9778 B(  0-C ,  3-H ) :   0.9740 


-------
TIMINGS
-------

Total SCF time: 0 days 0 hours 0 min 6 sec 

Total time                  ....       6.809 sec
Sum of individual times     ....       5.930 sec  ( 87.1%)

Fock matrix formation       ....       4.921 sec  ( 72.3%)
  Split-RI-J                ....       0.388 sec  (  7.9% of F)
  Chain of spheres X        ....       0.885 sec  ( 18.0% of F)
  XC integration            ....       2.607 sec  ( 53.0% of F)
    Basis function eval.    ....       0.110 sec  (  4.2% of XC)
    Density eval.           ....       0.129 sec  (  5.0% of XC)
    XC-Functional eval.     ....       0.137 sec  (  5.3% of XC)
    XC-Potential eval.      ....       0.154 sec  (  5.9% of XC)
Diagonalization             ....       0.046 sec  (  0.7%)
Density matrix formation    ....       0.003 sec  (  0.0%)
Population analysis         ....       0.072 sec  (  1.1%)
Initial guess               ....       0.131 sec  (  1.9%)
Orbital Transformation      ....       0.000 sec  (  0.0%)
Orbital Orthonormalization  ....       0.000 sec  (  0.0%)
DIIS solution               ....       0.100 sec  (  1.5%)
Grid generation             ....       0.657 sec  (  9.6%)

Maximum memory used throughout the entire SCF-calculation: 59.0 MB

-------------------------   --------------------
FINAL SINGLE POINT ENERGY       -39.824319392271
-------------------------   --------------------

   --->>> g-tensor requested, so NeedSOC=true

                            ***************************************
                            *     ORCA property calculations      *
                            ***************************************

                                    ---------------------
                                    Active property flags
                                    ---------------------
   (+) Dipole Moment
   (+) g-tensor
   (+) Nuclear properties (Hyperfine,Quadrupole)
   (+) Spin-Orbit Integrals are needed


------------------------------------------------------------------------------
                       ORCA ELECTRIC PROPERTIES CALCULATION
------------------------------------------------------------------------------

Dipole Moment Calculation                       ... on
Quadrupole Moment Calculation                   ... off
Polarizability Calculation                      ... off
GBWName                                         ... /home/rwth0701/scratch/cs681498/orcajob__30556152-SQEc/2873.gbw
Electron density                                ... /home/rwth0701/scratch/cs681498/orcajob__30556152-SQEc/2873.scfp
The origin for moment calculation is the CENTER OF MASS  = ( 4.891918, -22.560643 -18.367533)

-------------
DIPOLE MOMENT
-------------
                                X             Y             Z
Electronic contribution:     -0.07167      -0.16884       0.06414
Nuclear contribution   :      0.09125       0.21174      -0.03458
                        -----------------------------------------
Total Dipole Moment    :      0.01958       0.04290       0.02956
                        -----------------------------------------
Magnitude (a.u.)       :      0.05565
Magnitude (Debye)      :      0.14146



--------------------
Rotational spectrum 
--------------------
 
Rotational constants in cm-1:    10.339984     8.397846     4.660185 
Rotational constants in MHz : 309984.934548 251761.083615 139708.823910 

 Dipole components along the rotational axes: 
x,y,z [a.u.] :    -0.011103    -0.003788     0.054402 
x,y,z [Debye]:    -0.028221    -0.009629     0.138279 

 


           ************************************************************
           *        Program running with 4 parallel MPI-processes     *
           *              working on a common directory               *
           ************************************************************
------------------------------------------------------------------------------
                         ORCA SPIN-ORBIT COUPLING CALCULATION
------------------------------------------------------------------------------

GBW file                                    ... /home/rwth0701/scratch/cs681498/orcajob__30556152-SQEc/2873.gbw
Input density                               ... /home/rwth0701/scratch/cs681498/orcajob__30556152-SQEc/2873.scfp
Output integrals                            ... /home/rwth0701/scratch/cs681498/orcajob__30556152-SQEc/2873
Operator type                               ... Mean-field/Effective potential
   One-Electron Terms                       ... 1
   Coulomb Contribution                     ... 3
   Exchange Contribution                    ... 3
   Correlation Contribution                 ... 0
   Maximum number of centers                ... 4
SHARK 2-electron RIJ-SOMF                   ... done (  0.1 sec)
SHARK 1-electron  MaxCenter=4               ... done (  0.0 sec)
SHARK 2-electron DoJ,X=0,1 MaxCenter=1      ... done (  0.1 sec)

Maximum memory used throughout the entire SOC-calculation: 11.3 MB
Total time for SOC:  2.328


           ************************************************************
           *        Program running with 4 parallel MPI-processes     *
           *              working on a common directory               *
           ************************************************************
------------------------------------------------------------------------------
                                ORCA EPR/NMR CALCULATION
------------------------------------------------------------------------------

GBWName                      ... /home/rwth0701/scratch/cs681498/orcajob__30556152-SQEc/2873.gbw
Electron density             ... /home/rwth0701/scratch/cs681498/orcajob__30556152-SQEc/2873.scfp
Spin density                 ... /home/rwth0701/scratch/cs681498/orcajob__30556152-SQEc/2873.scfr
Spin-orbit integrals         ... /home/rwth0701/scratch/cs681498/orcajob__30556152-SQEc/2873
Treatment of gauge           ... GIAO (approximations 1/2el = 0,0)
Details of the CP(SCF) procedure:
       Solver   = POPLE   
       MaxIter  =    64   
       Tolerance=    1.000e-03
       COSX Grid=     1   
       Op-0     =   0-  4 =>   5- 72
       Op-1     =   0-  3 =>   4- 72
Multiplicity                 ... 2
g-tensor                     ... 1
NMR chemical shifts          ... 0
NMR spin-spin couplings      ... 0
NMR spectrum                 ... 0
Number of nuclei for epr/nmr ... 4
   Nucleus:   1H 
       Hyperfine : Isotope=    1 I=   0.500 P= 533.551
       Quadrupole: Isotope=    2 I=   1.000 Q=   0.003
       Spin-Orbit: Zeff=   1.000
       Nuclear Spin-Spin: Gn=   0.000
       EPRNMR Input: 
       rho(0)=N f(grad)=N a(iso)=Y a(dip)=Y a(orb)=Y sigma(nmr)=N spin-spin(nmr)=all-N,DSO-N,PSO-N,FC-N,SD-N
   Nucleus:   2H 
       Hyperfine : Isotope=    1 I=   0.500 P= 533.551
       Quadrupole: Isotope=    2 I=   1.000 Q=   0.003
       Spin-Orbit: Zeff=   1.000
       Nuclear Spin-Spin: Gn=   0.000
       EPRNMR Input: 
       rho(0)=N f(grad)=N a(iso)=Y a(dip)=Y a(orb)=Y sigma(nmr)=N spin-spin(nmr)=all-N,DSO-N,PSO-N,FC-N,SD-N
   Nucleus:   3H 
       Hyperfine : Isotope=    1 I=   0.500 P= 533.551
       Quadrupole: Isotope=    2 I=   1.000 Q=   0.003
       Spin-Orbit: Zeff=   1.000
       Nuclear Spin-Spin: Gn=   0.000
       EPRNMR Input: 
       rho(0)=N f(grad)=N a(iso)=Y a(dip)=Y a(orb)=Y sigma(nmr)=N spin-spin(nmr)=all-N,DSO-N,PSO-N,FC-N,SD-N
   Nucleus:   0C 
       Hyperfine : Isotope=   13 I=   0.500 P= 134.190
       Quadrupole: Isotope=   13 I=   0.500 Q=   0.000
       Spin-Orbit: Zeff=   3.600
       Nuclear Spin-Spin: Gn=   0.000
       EPRNMR Input: 
       rho(0)=N f(grad)=N a(iso)=Y a(dip)=Y a(orb)=Y sigma(nmr)=N spin-spin(nmr)=all-N,DSO-N,PSO-N,FC-N,SD-N
Forming RHS of the CP-SCF equations         ... 
Calculating right hand sides for GIAO treatment        ... 
  Entering RightHandSide GIAO. ScalHFX=    0.2000 NeedHFX=1
     -> 1-electron GIAO integrals will be done analytically
     -> RIJCOSX used in SCF. Same chosen for GIAO calculation.
     Making grid for GIAO integrations   ...

GRID GIAO
---------

General Integration Accuracy     IntAcc      ... 4.388
Radial Grid Type                 RadialGrid  ... OptM3 with GC (2021)
Angular Grid (max. ang.)         AngularGrid ... 4 (Lebedev-302)
Angular grid pruning method      GridPruning ... 4 (adaptive)
Weight generation scheme         WeightScheme... Becke
Basis function cutoff            BFCut       ... 1.0000e-10
Integration weight cutoff        WCut        ... 1.0000e-14
Angular grids for H and He will be reduced by one unit
Partially contracted basis set               ... off
Rotationally invariant grid construction     ... off

Total number of grid points                  ...    17061
Total number of batches                      ...      269
Average number of points per batch           ...       63
Average number of grid points per atom       ...     4265

  One-electron GIAO integrals (SHARK)     ... done
  Calculating G(B)[P]                     ... (RI-J: SHARK-ok) (COSX-ok) (add-J+K:ok) => dG/dB done
  DFT XC-terms                            ... done
  Extracting occupied and virtual blocks  ... 
  Operator  0  NO=   5 NV=  68 
  Operator  1  NO=   4 NV=  69 
  Transforming and RHS contribution       ... done
  Adding eps_i * S(B)_ai terms            ... done
  Projecting overlap derivatives          ... done
  Building G[dS/dB_ij] (COSX)             ... done
  Transforming to MO basis                ... done
  Summing G[dS/dB_ij] into RHS contribs.  ... done

  GIAO profiling information: 
    Total GIAO time               ...       0.9 sec
       GIAO 1-electron integrals  ...       0.0 sec (  0.4%)
       GIAO G(dS/dB) terms        ...       0.1 sec ( 14.0%)
       GIAO RI-J                  ...       0.1 sec ( 11.9%)
       GIAO COSX                  ...       0.2 sec ( 17.8%)
       GIAO XC-terms              ...       0.3 sec ( 34.6%)

  GIAO right hand side done


------------------------------------------------------------------------------
                           ORCA CP-SCF CALCULATION
------------------------------------------------------------------------------

Input orbitals are from        ... /home/rwth0701/scratch/cs681498/orcajob__30556152-SQEc/2873.gbw
Input Perturbation             ... /home/rwth0701/scratch/cs681498/orcajob__30556152-SQEc/2873.pin.tmp
Wavefunction output            ... /home/rwth0701/scratch/cs681498/orcajob__30556152-SQEc/2873.pout.tmp
Perturbation mode              ... Imaginary perturbation
Solver                         ... POPLE
Max. number of iterations      ... 64
Convergence tolerance          ... 1.000e-03
Integral handling              ... Direct
DFT GridXC                     ... 1
COSX GridX                     ... 1
COSX IntAccX                   ... 3.067
COSX Algorithm                 ... Auto
Number of perturbations        ... 3
Number of operators            ... 2
Orbital ranges used for CP-SCF:
 Operator 0:  Orbitals   0...  4  to   5... 72
 Operator 1:  Orbitals   0...  3  to   4... 72
Variables per perturbation     ... 616
DFT calculation                         ... on
XC functional terms                     ... off
Hybrid DFT                              ... on
   Exchange mixing (SCF)                ...  0.200
   Exchange mixing (CP-SCF)             ...  0.200
   GGA exch. scaling(SCF)               ...  0.720
   GGA exch. scaling (CP-SCF)           ...  0.720
   GGA corr. scaling (SCF)              ...  0.810
   GGA corr. scaling (CP-SCF)           ...  0.810

CP-SCF GRID
-----------

General Integration Accuracy     IntAcc      ... 3.467
Radial Grid Type                 RadialGrid  ... OptM3 with GC (2021)
Angular Grid (max. ang.)         AngularGrid ... 1 (Lebedev-50)
Angular grid pruning method      GridPruning ... 4 (adaptive)
Weight generation scheme         WeightScheme... Becke
Basis function cutoff            BFCut       ... 1.0000e-10
Integration weight cutoff        WCut        ... 1.0000e-14
Angular grids for H and He will be reduced by one unit
Partially contracted basis set               ... off
Rotationally invariant grid construction     ... off

Total number of grid points                  ...     2320
Total number of batches                      ...       38
Average number of points per batch           ...       61
Average number of grid points per atom       ...      580

CP-SCF GRIDX
------------

General Integration Accuracy     IntAcc      ... 3.067
Radial Grid Type                 RadialGrid  ... OptM3 with GC (2021)
Angular Grid (max. ang.)         AngularGrid ... 1 (Lebedev-50)
Angular grid pruning method      GridPruning ... 4 (adaptive)
Weight generation scheme         WeightScheme... Becke
Basis function cutoff            BFCut       ... 1.0000e-10
Integration weight cutoff        WCut        ... 1.0000e-14
Angular grids for H and He will be reduced by one unit
Partially contracted basis set               ... on
Rotationally invariant grid construction     ... off

Total number of grid points                  ...     1069
Total number of batches                      ...       20
Average number of points per batch           ...       53
Average number of grid points per atom       ...      267

Memory available               ... 1014.6 MB
Memory needed per perturbation ...   0.4 MB
Perturbations treated per batch... 3
Number of batches              ... 1
     CP-SCF ITERATION   0:   1.3916e+00 (   0.1 sec   0/  3 done)
     CP-SCF ITERATION   1:   3.8135e-02 (   0.1 sec   0/  3 done)
     CP-SCF ITERATION   2:   2.7322e-03 (   0.1 sec   0/  3 done)
     CP-SCF ITERATION   3:   1.2385e-04 (   0.1 sec   3/  3 done)
                    *** THE CP-SCF HAS CONVERGED ***

Forming final perturbed densities           ... done
Transforming perturbed density to AO basis  ... done

Magnetic field perturbation calculated in  1.415 sec
GIAO: Diamagnetic terms      (analytic)     (SHARK) ... done
GIAO: 1el-Paramagnetic terms (analytic)     (SHARK) ... done

-------------------
ELECTRONIC G-MATRIX
-------------------

 The g-matrix: 
              2.0028632   -0.0000850   -0.0001108
             -0.0000928    2.0025461   -0.0003013
             -0.0001136   -0.0003040    2.0025879

 gel          2.0023193    2.0023193    2.0023193
 gRMC        -0.0001276   -0.0001276   -0.0001276
 gDSO(tot)    0.0000345    0.0000704    0.0000710
 gPSO(tot)    0.0000057    0.0005964    0.0006443
             ----------   ----------   ----------
 g(tot)       2.0022318    2.0028585    2.0029069 iso=  2.0026657
 Delta-g     -0.0000874    0.0005392    0.0005876 iso=  0.0003465
 Orientation: 
  X          -0.2190038   -0.4827934    0.8479079
  Y          -0.7083200    0.6763279    0.2021468
  Z          -0.6710589   -0.5563192   -0.4900906

Notes:  (1) The g-matrix conforms to the "BgS" spin Hamiltonian convention. 
        (2) The principal values are square roots of the eigenvalues of g*gT.
        (3) Orientations are eigenvectors of g*gT written as column vectors.
        (4) Individual contributions are projections of the full matrices onto the eigenvectors of g*gT.
        (5) Tensor is right-handed.


-----------------------------------------
ELECTRIC AND MAGNETIC HYPERFINE STRUCTURE
-----------------------------------------

 -----------------------------------------------------------
 Nucleus   1H : A:ISTP=    1 I=  0.5 P=533.5514 MHz/au**3
                Q:ISTP=    2 I=  1.0 Q=  0.0029 barn     
 -----------------------------------------------------------
 Solving for nuclear perturbation:
Forming RHS of the CP-SCF equations         ... 
Calc. nucleus orbit integrals (SHARK)       ... done

------------------------------------------------------------------------------
                           ORCA CP-SCF CALCULATION
------------------------------------------------------------------------------

Input orbitals are from        ... /home/rwth0701/scratch/cs681498/orcajob__30556152-SQEc/2873.gbw
Input Perturbation             ... /home/rwth0701/scratch/cs681498/orcajob__30556152-SQEc/2873.pin.tmp
Wavefunction output            ... /home/rwth0701/scratch/cs681498/orcajob__30556152-SQEc/2873.pout.tmp
Perturbation mode              ... Imaginary perturbation
Solver                         ... POPLE
Max. number of iterations      ... 64
Convergence tolerance          ... 1.000e-03
Integral handling              ... Direct
DFT GridXC                     ... 1
COSX GridX                     ... 1
COSX IntAccX                   ... 3.067
COSX Algorithm                 ... Auto
Number of perturbations        ... 3
Number of operators            ... 2
Orbital ranges used for CP-SCF:
 Operator 0:  Orbitals   0...  4  to   5... 72
 Operator 1:  Orbitals   0...  3  to   4... 72
Variables per perturbation     ... 616
DFT calculation                         ... on
XC functional terms                     ... off
Hybrid DFT                              ... on
   Exchange mixing (SCF)                ...  0.200
   Exchange mixing (CP-SCF)             ...  0.200
   GGA exch. scaling(SCF)               ...  0.720
   GGA exch. scaling (CP-SCF)           ...  0.720
   GGA corr. scaling (SCF)              ...  0.810
   GGA corr. scaling (CP-SCF)           ...  0.810

CP-SCF GRID
-----------

General Integration Accuracy     IntAcc      ... 3.467
Radial Grid Type                 RadialGrid  ... OptM3 with GC (2021)
Angular Grid (max. ang.)         AngularGrid ... 1 (Lebedev-50)
Angular grid pruning method      GridPruning ... 4 (adaptive)
Weight generation scheme         WeightScheme... Becke
Basis function cutoff            BFCut       ... 1.0000e-10
Integration weight cutoff        WCut        ... 1.0000e-14
Angular grids for H and He will be reduced by one unit
Partially contracted basis set               ... off
Rotationally invariant grid construction     ... off

Total number of grid points                  ...     2320
Total number of batches                      ...       38
Average number of points per batch           ...       61
Average number of grid points per atom       ...      580

CP-SCF GRIDX
------------

General Integration Accuracy     IntAcc      ... 3.067
Radial Grid Type                 RadialGrid  ... OptM3 with GC (2021)
Angular Grid (max. ang.)         AngularGrid ... 1 (Lebedev-50)
Angular grid pruning method      GridPruning ... 4 (adaptive)
Weight generation scheme         WeightScheme... Becke
Basis function cutoff            BFCut       ... 1.0000e-10
Integration weight cutoff        WCut        ... 1.0000e-14
Angular grids for H and He will be reduced by one unit
Partially contracted basis set               ... on
Rotationally invariant grid construction     ... off

Total number of grid points                  ...     1069
Total number of batches                      ...       20
Average number of points per batch           ...       53
Average number of grid points per atom       ...      267

Memory available               ... 968.0 MB
Memory needed per perturbation ...   0.4 MB
Perturbations treated per batch... 3
Number of batches              ... 1
     CP-SCF ITERATION   0:   6.8097e-02 (   0.1 sec   0/  3 done)
     CP-SCF ITERATION   1:   2.7274e-03 (   0.1 sec   0/  3 done)
     CP-SCF ITERATION   2:   2.0988e-04 (   0.1 sec   3/  3 done)
                    *** THE CP-SCF HAS CONVERGED ***

Forming final perturbed densities           ... done
Transforming perturbed density to AO basis  ... done

 Raw HFC matrix (all values in MHz): 
 -----------------------------------
               -33.6139             -19.1627              14.8370
               -19.1626             -73.0754              16.3245
                14.8371              16.3245             -83.8514

 A(FC)         -63.5279             -63.5279             -63.5279
 A(SD)          38.8004               1.2152             -40.0157
 A(ORB+DIA)      0.0126              -0.0005               0.0308    A(PC) =   0.0143
 A(ORB)          0.0076               0.0006               0.0294    A(PC) =   0.0125
 A(DIA)          0.0050              -0.0011               0.0014    A(PC) =   0.0018
             ----------           ----------           ----------
 A(Tot)        -24.7148             -62.3132            -103.5127    A(iso)=  -63.5136
 Orientation: 
  X           0.9356046            0.1496463           -0.3197655
  Y          -0.3214453            0.7356329           -0.5962526
  Z           0.1460030            0.6606438            0.7363646

Notes:  (1) The A matrix conforms to the "SAI" spin Hamiltonian convention.
        (2) Tensor is right-handed.

 -----------------------------------------------------------
 Nucleus   2H : A:ISTP=    1 I=  0.5 P=533.5514 MHz/au**3
                Q:ISTP=    2 I=  1.0 Q=  0.0029 barn     
 -----------------------------------------------------------
 Solving for nuclear perturbation:
Forming RHS of the CP-SCF equations         ... 
Calc. nucleus orbit integrals (SHARK)       ... done

------------------------------------------------------------------------------
                           ORCA CP-SCF CALCULATION
------------------------------------------------------------------------------

Input orbitals are from        ... /home/rwth0701/scratch/cs681498/orcajob__30556152-SQEc/2873.gbw
Input Perturbation             ... /home/rwth0701/scratch/cs681498/orcajob__30556152-SQEc/2873.pin.tmp
Wavefunction output            ... /home/rwth0701/scratch/cs681498/orcajob__30556152-SQEc/2873.pout.tmp
Perturbation mode              ... Imaginary perturbation
Solver                         ... POPLE
Max. number of iterations      ... 64
Convergence tolerance          ... 1.000e-03
Integral handling              ... Direct
DFT GridXC                     ... 1
COSX GridX                     ... 1
COSX IntAccX                   ... 3.067
COSX Algorithm                 ... Auto
Number of perturbations        ... 3
Number of operators            ... 2
Orbital ranges used for CP-SCF:
 Operator 0:  Orbitals   0...  4  to   5... 72
 Operator 1:  Orbitals   0...  3  to   4... 72
Variables per perturbation     ... 616
DFT calculation                         ... on
XC functional terms                     ... off
Hybrid DFT                              ... on
   Exchange mixing (SCF)                ...  0.200
   Exchange mixing (CP-SCF)             ...  0.200
   GGA exch. scaling(SCF)               ...  0.720
   GGA exch. scaling (CP-SCF)           ...  0.720
   GGA corr. scaling (SCF)              ...  0.810
   GGA corr. scaling (CP-SCF)           ...  0.810

CP-SCF GRID
-----------

General Integration Accuracy     IntAcc      ... 3.467
Radial Grid Type                 RadialGrid  ... OptM3 with GC (2021)
Angular Grid (max. ang.)         AngularGrid ... 1 (Lebedev-50)
Angular grid pruning method      GridPruning ... 4 (adaptive)
Weight generation scheme         WeightScheme... Becke
Basis function cutoff            BFCut       ... 1.0000e-10
Integration weight cutoff        WCut        ... 1.0000e-14
Angular grids for H and He will be reduced by one unit
Partially contracted basis set               ... off
Rotationally invariant grid construction     ... off

Total number of grid points                  ...     2320
Total number of batches                      ...       38
Average number of points per batch           ...       61
Average number of grid points per atom       ...      580

CP-SCF GRIDX
------------

General Integration Accuracy     IntAcc      ... 3.067
Radial Grid Type                 RadialGrid  ... OptM3 with GC (2021)
Angular Grid (max. ang.)         AngularGrid ... 1 (Lebedev-50)
Angular grid pruning method      GridPruning ... 4 (adaptive)
Weight generation scheme         WeightScheme... Becke
Basis function cutoff            BFCut       ... 1.0000e-10
Integration weight cutoff        WCut        ... 1.0000e-14
Angular grids for H and He will be reduced by one unit
Partially contracted basis set               ... on
Rotationally invariant grid construction     ... off

Total number of grid points                  ...     1069
Total number of batches                      ...       20
Average number of points per batch           ...       53
Average number of grid points per atom       ...      267

Memory available               ... 967.8 MB
Memory needed per perturbation ...   0.4 MB
Perturbations treated per batch... 3
Number of batches              ... 1
     CP-SCF ITERATION   0:   5.4154e-02 (   0.1 sec   0/  3 done)
     CP-SCF ITERATION   1:   2.1766e-03 (   0.1 sec   0/  3 done)
     CP-SCF ITERATION   2:   1.4988e-04 (   0.1 sec   3/  3 done)
                    *** THE CP-SCF HAS CONVERGED ***

Forming final perturbed densities           ... done
Transforming perturbed density to AO basis  ... done

 Raw HFC matrix (all values in MHz): 
 -----------------------------------
               -97.6235               6.0285               4.5753
                 6.0283             -44.0098             -19.8522
                 4.5755             -19.8522             -47.1195

 A(FC)         -62.9318             -62.9318             -62.9318
 A(SD)          37.2913              -0.9038             -36.3875
 A(ORB+DIA)      0.0135              -0.0006               0.0296    A(PC) =   0.0142
 A(ORB)          0.0091               0.0004               0.0284    A(PC) =   0.0126
 A(DIA)          0.0044              -0.0011               0.0012    A(PC) =   0.0015
             ----------           ----------           ----------
 A(Tot)        -25.6270             -63.8362             -99.2896    A(iso)=  -62.9176
 Orientation: 
  X          -0.0186895            0.2151008           -0.9764130
  Y          -0.7364352            0.6575683            0.1589564
  Z           0.6762498            0.7220358            0.1461182

Notes:  (1) The A matrix conforms to the "SAI" spin Hamiltonian convention.
        (2) Tensor is right-handed.

 -----------------------------------------------------------
 Nucleus   3H : A:ISTP=    1 I=  0.5 P=533.5514 MHz/au**3
                Q:ISTP=    2 I=  1.0 Q=  0.0029 barn     
 -----------------------------------------------------------
 Solving for nuclear perturbation:
Forming RHS of the CP-SCF equations         ... 
Calc. nucleus orbit integrals (SHARK)       ... done

------------------------------------------------------------------------------
                           ORCA CP-SCF CALCULATION
------------------------------------------------------------------------------

Input orbitals are from        ... /home/rwth0701/scratch/cs681498/orcajob__30556152-SQEc/2873.gbw
Input Perturbation             ... /home/rwth0701/scratch/cs681498/orcajob__30556152-SQEc/2873.pin.tmp
Wavefunction output            ... /home/rwth0701/scratch/cs681498/orcajob__30556152-SQEc/2873.pout.tmp
Perturbation mode              ... Imaginary perturbation
Solver                         ... POPLE
Max. number of iterations      ... 64
Convergence tolerance          ... 1.000e-03
Integral handling              ... Direct
DFT GridXC                     ... 1
COSX GridX                     ... 1
COSX IntAccX                   ... 3.067
COSX Algorithm                 ... Auto
Number of perturbations        ... 3
Number of operators            ... 2
Orbital ranges used for CP-SCF:
 Operator 0:  Orbitals   0...  4  to   5... 72
 Operator 1:  Orbitals   0...  3  to   4... 72
Variables per perturbation     ... 616
DFT calculation                         ... on
XC functional terms                     ... off
Hybrid DFT                              ... on
   Exchange mixing (SCF)                ...  0.200
   Exchange mixing (CP-SCF)             ...  0.200
   GGA exch. scaling(SCF)               ...  0.720
   GGA exch. scaling (CP-SCF)           ...  0.720
   GGA corr. scaling (SCF)              ...  0.810
   GGA corr. scaling (CP-SCF)           ...  0.810

CP-SCF GRID
-----------

General Integration Accuracy     IntAcc      ... 3.467
Radial Grid Type                 RadialGrid  ... OptM3 with GC (2021)
Angular Grid (max. ang.)         AngularGrid ... 1 (Lebedev-50)
Angular grid pruning method      GridPruning ... 4 (adaptive)
Weight generation scheme         WeightScheme... Becke
Basis function cutoff            BFCut       ... 1.0000e-10
Integration weight cutoff        WCut        ... 1.0000e-14
Angular grids for H and He will be reduced by one unit
Partially contracted basis set               ... off
Rotationally invariant grid construction     ... off

Total number of grid points                  ...     2320
Total number of batches                      ...       38
Average number of points per batch           ...       61
Average number of grid points per atom       ...      580

CP-SCF GRIDX
------------

General Integration Accuracy     IntAcc      ... 3.067
Radial Grid Type                 RadialGrid  ... OptM3 with GC (2021)
Angular Grid (max. ang.)         AngularGrid ... 1 (Lebedev-50)
Angular grid pruning method      GridPruning ... 4 (adaptive)
Weight generation scheme         WeightScheme... Becke
Basis function cutoff            BFCut       ... 1.0000e-10
Integration weight cutoff        WCut        ... 1.0000e-14
Angular grids for H and He will be reduced by one unit
Partially contracted basis set               ... on
Rotationally invariant grid construction     ... off

Total number of grid points                  ...     1069
Total number of batches                      ...       20
Average number of points per batch           ...       53
Average number of grid points per atom       ...      267

Memory available               ... 967.7 MB
Memory needed per perturbation ...   0.4 MB
Perturbations treated per batch... 3
Number of batches              ... 1
     CP-SCF ITERATION   0:   6.6948e-02 (   0.1 sec   0/  3 done)
     CP-SCF ITERATION   1:   2.8854e-03 (   0.1 sec   0/  3 done)
     CP-SCF ITERATION   2:   2.3108e-04 (   0.1 sec   3/  3 done)
                    *** THE CP-SCF HAS CONVERGED ***

Forming final perturbed densities           ... done
Transforming perturbed density to AO basis  ... done

 Raw HFC matrix (all values in MHz): 
 -----------------------------------
               -48.6857              18.3241             -27.6650
                18.3247             -82.0941              11.6467
               -27.6659              11.6469             -66.5682

 A(FC)         -65.7964             -65.7964             -65.7964
 A(SD)          38.5529               0.7800             -39.3329
 A(ORB+DIA)      0.0120              -0.0005               0.0297    A(PC) =   0.0137
 A(ORB)          0.0071               0.0006               0.0283    A(PC) =   0.0120
 A(DIA)          0.0049              -0.0011               0.0014    A(PC) =   0.0017
             ----------           ----------           ----------
 A(Tot)        -27.2315             -65.0169            -105.0996    A(iso)=  -65.7827
 Orientation: 
  X           0.8290855            0.2684642            0.4904531
  Y           0.1634021            0.7225488           -0.6717314
  Z          -0.5347121            0.6370637            0.5551871

Notes:  (1) The A matrix conforms to the "SAI" spin Hamiltonian convention.
        (2) Tensor is right-handed.

 -----------------------------------------------------------
 Nucleus   0C : A:ISTP=   13 I=  0.5 P=134.1903 MHz/au**3
                Q:ISTP=   13 I=  0.5 Q=  0.0000 barn     
 -----------------------------------------------------------
 Solving for nuclear perturbation:
Forming RHS of the CP-SCF equations         ... 
Calc. nucleus orbit integrals (SHARK)       ... done

------------------------------------------------------------------------------
                           ORCA CP-SCF CALCULATION
------------------------------------------------------------------------------

Input orbitals are from        ... /home/rwth0701/scratch/cs681498/orcajob__30556152-SQEc/2873.gbw
Input Perturbation             ... /home/rwth0701/scratch/cs681498/orcajob__30556152-SQEc/2873.pin.tmp
Wavefunction output            ... /home/rwth0701/scratch/cs681498/orcajob__30556152-SQEc/2873.pout.tmp
Perturbation mode              ... Imaginary perturbation
Solver                         ... POPLE
Max. number of iterations      ... 64
Convergence tolerance          ... 1.000e-03
Integral handling              ... Direct
DFT GridXC                     ... 1
COSX GridX                     ... 1
COSX IntAccX                   ... 3.067
COSX Algorithm                 ... Auto
Number of perturbations        ... 3
Number of operators            ... 2
Orbital ranges used for CP-SCF:
 Operator 0:  Orbitals   0...  4  to   5... 72
 Operator 1:  Orbitals   0...  3  to   4... 72
Variables per perturbation     ... 616
DFT calculation                         ... on
XC functional terms                     ... off
Hybrid DFT                              ... on
   Exchange mixing (SCF)                ...  0.200
   Exchange mixing (CP-SCF)             ...  0.200
   GGA exch. scaling(SCF)               ...  0.720
   GGA exch. scaling (CP-SCF)           ...  0.720
   GGA corr. scaling (SCF)              ...  0.810
   GGA corr. scaling (CP-SCF)           ...  0.810

CP-SCF GRID
-----------

General Integration Accuracy     IntAcc      ... 3.467
Radial Grid Type                 RadialGrid  ... OptM3 with GC (2021)
Angular Grid (max. ang.)         AngularGrid ... 1 (Lebedev-50)
Angular grid pruning method      GridPruning ... 4 (adaptive)
Weight generation scheme         WeightScheme... Becke
Basis function cutoff            BFCut       ... 1.0000e-10
Integration weight cutoff        WCut        ... 1.0000e-14
Angular grids for H and He will be reduced by one unit
Partially contracted basis set               ... off
Rotationally invariant grid construction     ... off

Total number of grid points                  ...     2320
Total number of batches                      ...       38
Average number of points per batch           ...       61
Average number of grid points per atom       ...      580

CP-SCF GRIDX
------------

General Integration Accuracy     IntAcc      ... 3.067
Radial Grid Type                 RadialGrid  ... OptM3 with GC (2021)
Angular Grid (max. ang.)         AngularGrid ... 1 (Lebedev-50)
Angular grid pruning method      GridPruning ... 4 (adaptive)
Weight generation scheme         WeightScheme... Becke
Basis function cutoff            BFCut       ... 1.0000e-10
Integration weight cutoff        WCut        ... 1.0000e-14
Angular grids for H and He will be reduced by one unit
Partially contracted basis set               ... on
Rotationally invariant grid construction     ... off

Total number of grid points                  ...     1069
Total number of batches                      ...       20
Average number of points per batch           ...       53
Average number of grid points per atom       ...      267

Memory available               ... 967.6 MB
Memory needed per perturbation ...   0.4 MB
Perturbations treated per batch... 3
Number of batches              ... 1
     CP-SCF ITERATION   0:   1.1676e+00 (   0.1 sec   0/  3 done)
     CP-SCF ITERATION   1:   4.5749e-02 (   0.1 sec   0/  3 done)
     CP-SCF ITERATION   2:   3.4032e-03 (   0.1 sec   0/  3 done)
     CP-SCF ITERATION   3:   2.0019e-04 (   0.1 sec   3/  3 done)
                    *** THE CP-SCF HAS CONVERGED ***

Forming final perturbed densities           ... done
Transforming perturbed density to AO basis  ... done

 Raw HFC matrix (all values in MHz): 
 -----------------------------------
                25.9507              36.4359              34.9098
                36.4360             136.8923             114.4376
                34.9098             114.4376             124.3449

 A(FC)          95.8465              95.8465              95.8465
 A(SD)         -80.8550             -79.5939             160.4489
 A(ORB+DIA)     -0.1689              -0.1698              -0.0129    A(PC) =  -0.1172
 A(ORB)         -0.1694              -0.1702              -0.0128    A(PC) =  -0.1174
 A(DIA)          0.0004               0.0004              -0.0001    A(PC) =   0.0002
             ----------           ----------           ----------
 A(Tot)         14.8226              16.0828             256.2825    A(iso)=   95.7293
 Orientation: 
  X           0.9478902           -0.2360268            0.2139991
  Y           0.0153979            0.7048454            0.7091938
  Z          -0.3182250           -0.6689427            0.6717504

Notes:  (1) The A matrix conforms to the "SAI" spin Hamiltonian convention.
        (2) Tensor is right-handed.


--------------------------------------------------------------------------------
----------------------------------------------------------------------------
                           ORCA EULER ANGLE PROGRAM
----------------------------------------------------------------------------

Only g-tensor available        -->  using g-tensor as reference tensor

Reference tensor               ...  g

g-tensor ordering              ...  |g_min> --> |gx>
                                    |g_mid> --> |gy>
                                    |g_max> --> |gz>

A- and EFG-tensor ordering     ...  the axes |Ax>, |Qx>, |Ay>, etc. are assigned
                                    such that the Euler rotation is minimal. You
                                    can find the respective eigenvalues as Ax,
                                    EFGx, Ay, etc. in the tables below.
                                    The relation of |Ax>, |Ay>,  etc. to Amin, Amid, etc.
                                    (as printed in the ORCA EPR/NMR CALCULATION Output)
                                    is obtained in the detailed printout.

Euler rotation around          ...  z - y - z
   First rotation              -->  by alpha around z
   Second rotation             -->  by beta around y'
   Third rotation              -->  by gamma around z''
   Positive / Negative angle   -->  clockwise / counterclockwise rotation

Plot EFG-tensors                    (-)
Plot HFC-tensors                    (-)
Detailed Printout                   (-)

-------------------------------------------------------------------------
          Euler rotation of hyperfine tensor to g-tensor
-------------------------------------------------------------------------

-------------------------------------------------------------------
 Atom  |   Alpha    Beta    Gamma   |   Ax       Ay       Az 
       |          [degrees]         |           [MHz]         
-------------------------------------------------------------------
  1H      -85.8     41.2     90.2     -62.31   -24.71  -103.51
  2H       85.6     29.8    -89.6     -63.84   -25.63   -99.29
  3H     -172.6      3.6    172.9     -65.02  -105.10   -27.23
  0C       89.1     15.7    -89.0     256.28    16.08    14.82
-------------------------------------------------------------------


Maximum memory used throughout the entire EPRNMR-calculation: 67.6 MB

Timings for individual modules:

Sum of individual times         ...       21.992 sec (=   0.367 min)
GTO integral calculation        ...        3.782 sec (=   0.063 min)  17.2 %
Spin-Orbit-Coupling Matrices    ...        2.318 sec (=   0.039 min)  10.5 %
SCF iterations                  ...        9.247 sec (=   0.154 min)  42.0 %
EPR/NMR calculation             ...        6.645 sec (=   0.111 min)  30.2 %
                             ****ORCA TERMINATED NORMALLY****
TOTAL RUN TIME: 0 days 0 hours 0 minutes 24 seconds 469 msec
