Job execution start: Mon Oct 24 20:40:48 CEST 2022
Shared library path: /home/cs681498/orca:/opt/MPI/openmpi-4.1.1/linux/gcc_4.8.5/lib:/opt/MPI/openmpi-4.1.1/linux/gcc_4.8.5/lib/lib32
Slurm Job ID is: 30556240
Slurm Job name is: 6209
ncm0933

                                 *****************
                                 * O   R   C   A *
                                 *****************

                                            #,                                       
                                            ###                                      
                                            ####                                     
                                            #####                                    
                                            ######                                   
                                           ########,                                 
                                     ,,################,,,,,                         
                               ,,#################################,,                 
                          ,,##########################################,,             
                       ,#########################################, ''#####,          
                    ,#############################################,,   '####,        
                  ,##################################################,,,,####,       
                ,###########''''           ''''###############################       
              ,#####''   ,,,,##########,,,,          '''####'''          '####       
            ,##' ,,,,###########################,,,                        '##       
           ' ,,###''''                  '''############,,,                           
         ,,##''                                '''############,,,,        ,,,,,,###''
      ,#''                                            '''#######################'''  
     '                                                          ''''####''''         
             ,#######,   #######,   ,#######,      ##                                
            ,#'     '#,  ##    ##  ,#'     '#,    #''#        ######   ,####,        
            ##       ##  ##   ,#'  ##            #'  '#       #        #'  '#        
            ##       ##  #######   ##           ,######,      #####,   #    #        
            '#,     ,#'  ##    ##  '#,     ,#' ,#      #,         ##   #,  ,#        
             '#######'   ##     ##  '#######'  #'      '#     #####' # '####'        



                  #######################################################
                  #                        -***-                        #
                  #          Department of theory and spectroscopy      #
                  #    Directorship and core code : Frank Neese         #
                  #        Max Planck Institute fuer Kohlenforschung    #
                  #                Kaiser Wilhelm Platz 1               #
                  #                 D-45470 Muelheim/Ruhr               #
                  #                      Germany                        #
                  #                                                     #
                  #                  All rights reserved                #
                  #                        -***-                        #
                  #######################################################


                         Program Version 5.0.3 -  RELEASE  -


 With contributions from (in alphabetic order):
   Daniel Aravena         : Magnetic Suceptibility
   Michael Atanasov       : Ab Initio Ligand Field Theory (pilot matlab implementation)
   Alexander A. Auer      : GIAO ZORA, VPT2 properties, NMR spectrum
   Ute Becker             : Parallelization
   Giovanni Bistoni       : ED, misc. LED, open-shell LED, HFLD
   Martin Brehm           : Molecular dynamics
   Dmytro Bykov           : SCF Hessian
   Vijay G. Chilkuri      : MRCI spin determinant printing, contributions to CSF-ICE
   Dipayan Datta          : RHF DLPNO-CCSD density
   Achintya Kumar Dutta   : EOM-CC, STEOM-CC
   Dmitry Ganyushin       : Spin-Orbit,Spin-Spin,Magnetic field MRCI
   Miquel Garcia          : C-PCM and meta-GGA Hessian, CC/C-PCM, Gaussian charge scheme
   Yang Guo               : DLPNO-NEVPT2, F12-NEVPT2, CIM, IAO-localization
   Andreas Hansen         : Spin unrestricted coupled pair/coupled cluster methods
   Benjamin Helmich-Paris : MC-RPA, TRAH-SCF, COSX integrals
   Lee Huntington         : MR-EOM, pCC
   Robert Izsak           : Overlap fitted RIJCOSX, COSX-SCS-MP3, EOM
   Marcus Kettner         : VPT2
   Christian Kollmar      : KDIIS, OOCD, Brueckner-CCSD(T), CCSD density, CASPT2, CASPT2-K
   Simone Kossmann        : Meta GGA functionals, TD-DFT gradient, OOMP2, MP2 Hessian
   Martin Krupicka        : Initial AUTO-CI
   Lucas Lang             : DCDCAS
   Marvin Lechner         : AUTO-CI (C++ implementation), FIC-MRCC
   Dagmar Lenk            : GEPOL surface, SMD
   Dimitrios Liakos       : Extrapolation schemes; Compound Job, initial MDCI parallelization
   Dimitrios Manganas     : Further ROCIS development; embedding schemes
   Dimitrios Pantazis     : SARC Basis sets
   Anastasios Papadopoulos: AUTO-CI, single reference methods and gradients
   Taras Petrenko         : DFT Hessian,TD-DFT gradient, ASA, ECA, R-Raman, ABS, FL, XAS/XES, NRVS
   Peter Pinski           : DLPNO-MP2, DLPNO-MP2 Gradient
   Christoph Reimann      : Effective Core Potentials
   Marius Retegan         : Local ZFS, SOC
   Christoph Riplinger    : Optimizer, TS searches, QM/MM, DLPNO-CCSD(T), (RO)-DLPNO pert. Triples
   Tobias Risthaus        : Range-separated hybrids, TD-DFT gradient, RPA, STAB
   Michael Roemelt        : Original ROCIS implementation
   Masaaki Saitow         : Open-shell DLPNO-CCSD energy and density
   Barbara Sandhoefer     : DKH picture change effects
   Avijit Sen             : IP-ROCIS
   Kantharuban Sivalingam : CASSCF convergence, NEVPT2, FIC-MRCI
   Bernardo de Souza      : ESD, SOC TD-DFT
   Georgi Stoychev        : AutoAux, RI-MP2 NMR, DLPNO-MP2 response
   Willem Van den Heuvel  : Paramagnetic NMR
   Boris Wezisla          : Elementary symmetry handling
   Frank Wennmohs         : Technical directorship


 We gratefully acknowledge several colleagues who have allowed us to
 interface, adapt or use parts of their codes:
   Stefan Grimme, W. Hujo, H. Kruse, P. Pracht,  : VdW corrections, initial TS optimization,
                  C. Bannwarth, S. Ehlert          DFT functionals, gCP, sTDA/sTD-DF
   Ed Valeev, F. Pavosevic, A. Kumar             : LibInt (2-el integral package), F12 methods
   Garnet Chan, S. Sharma, J. Yang, R. Olivares  : DMRG
   Ulf Ekstrom                                   : XCFun DFT Library
   Mihaly Kallay                                 : mrcc  (arbitrary order and MRCC methods)
   Jiri Pittner, Ondrej Demel                    : Mk-CCSD
   Frank Weinhold                                : gennbo (NPA and NBO analysis)
   Christopher J. Cramer and Donald G. Truhlar   : smd solvation model
   Lars Goerigk                                  : TD-DFT with DH, B97 family of functionals
   V. Asgeirsson, H. Jonsson                     : NEB implementation
   FAccTs GmbH                                   : IRC, NEB, NEB-TS, DLPNO-Multilevel, CI-OPT
                                                   MM, QMMM, 2- and 3-layer-ONIOM, Crystal-QMMM,
                                                   LR-CPCM, SF, NACMEs, symmetry and pop. for TD-DFT,
                                                   nearIR, NL-DFT gradient (VV10), updates on ESD,
                                                   ML-optimized integration grids
   S Lehtola, MJT Oliveira, MAL Marques          : LibXC Library
   Liviu Ungur et al                             : ANISO software


 Your calculation uses the libint2 library for the computation of 2-el integrals
 For citations please refer to: http://libint.valeyev.net

 Your ORCA version has been built with support for libXC version: 5.1.0
 For citations please refer to: https://tddft.org/programs/libxc/

 This ORCA versions uses:
   CBLAS   interface :  Fast vector & matrix operations
   LAPACKE interface :  Fast linear algebra routines
   SCALAPACK package :  Parallel linear algebra routines
   Shared memory     :  Shared parallel matrices
   BLAS/LAPACK       :  OpenBLAS 0.3.15  USE64BITINT DYNAMIC_ARCH NO_AFFINITY SkylakeX SINGLE_THREADED
        Core in use  :  SkylakeX
   Copyright (c) 2011-2014, The OpenBLAS Project


================================================================================

----- Orbital basis set information -----
Your calculation utilizes the basis: EPR-III
   V. Barone, in Recent Advances in Density Functional Methods, Part 1 (ed. D. P. Chong), World Scientific, Singapore, 1995, p. 287.
   N. Rega, M. Cossi and V. Barone, J. Chem. Phys. 105, 11060 (1996).

----- AuxJ basis set information -----
Your calculation utilizes the AutoAux generation procedure.
  G. L. Stoychev, A. A. Auer, F. Neese, J. Chem. Theory Comput. 13, 554 (2017)

----- AuxC basis set information -----
Your calculation utilizes the AutoAux generation procedure.
  G. L. Stoychev, A. A. Auer, F. Neese, J. Chem. Theory Comput. 13, 554 (2017)

----- AuxJK basis set information -----
Your calculation utilizes the AutoAux generation procedure.
  G. L. Stoychev, A. A. Auer, F. Neese, J. Chem. Theory Comput. 13, 554 (2017)

================================================================================
                                        WARNINGS
                       Please study these warnings very carefully!
================================================================================


WARNING: your system is open-shell and RHF/RKS was chosen
  ===> : WILL SWITCH to UHF/UKS


INFO   : the flag for use of the SHARK integral package has been found!

================================================================================
                                       INPUT FILE
================================================================================
NAME = /home/rwth0701/scratch/cs681498/orcajob__30556240-pEwT/6209.inp
|  1> !B3LYP EPR-III Autoaux
|  2> !PAL4
|  3> 
|  4> * xyz 0 2
|  5>  C    -14.7711824304    -31.6957965825    -14.2150971280
|  6>  H    -15.7002583911    -31.0525410494    -13.9709116450
|  7>  H    -14.8347792693    -32.4935250825    -14.9120229299
|  8>  H    -13.8701098771    -31.3459176596    -13.7382643393
|  9> *
| 10> 
| 11> %EPRNMR
| 12>         GTENSOR   TRUE
| 13>         NUCLEI    = ALL H {AISO, ADIP, AORB}
| 14>         NUCLEI    = ALL C {AISO, ADIP, AORB}
| 15> END
| 16> 
| 17> 
| 18>                          ****END OF INPUT****
================================================================================

                       ****************************
                       * Single Point Calculation *
                       ****************************

---------------------------------
CARTESIAN COORDINATES (ANGSTROEM)
---------------------------------
  C    -14.771182  -31.695797  -14.215097
  H    -15.700258  -31.052541  -13.970912
  H    -14.834779  -32.493525  -14.912023
  H    -13.870110  -31.345918  -13.738264

----------------------------
CARTESIAN COORDINATES (A.U.)
----------------------------
  NO LB      ZA    FRAG     MASS         X           Y           Z
   0 C     6.0000    0    12.011  -27.913489  -59.896375  -26.862641
   1 H     1.0000    0     1.008  -29.669189  -58.680798  -26.401197
   2 H     1.0000    0     1.008  -28.033670  -61.403864  -28.179639
   3 H     1.0000    0     1.008  -26.210709  -59.235200  -25.961557

--------------------------------
INTERNAL COORDINATES (ANGSTROEM)
--------------------------------
 C      0   0   0     0.000000000000     0.00000000     0.00000000
 H      1   0   0     1.156108287196     0.00000000     0.00000000
 H      1   2   0     1.061188433307   120.58477226     0.00000000
 H      1   2   3     1.077829539111   113.43941359   175.19446627

---------------------------
INTERNAL COORDINATES (A.U.)
---------------------------
 C      0   0   0     0.000000000000     0.00000000     0.00000000
 H      1   0   0     2.184728043956     0.00000000     0.00000000
 H      1   2   0     2.005355515435   120.58477226     0.00000000
 H      1   2   3     2.036802647970   113.43941359   175.19446627

---------------------
BASIS SET INFORMATION
---------------------
There are 2 groups of distinct atoms

 Group   1 Type C   : 12s8p2d1f contracted to 8s5p2d1f pattern {51111111/41111/11/1}
 Group   2 Type H   : 7s2p contracted to 5s2p pattern {31111/11}

Atom   0C    basis set group =>   1
Atom   1H    basis set group =>   2
Atom   2H    basis set group =>   2
Atom   3H    basis set group =>   2
---------------------------------
AUXILIARY/J BASIS SET INFORMATION
---------------------------------
There are 2 groups of distinct atoms

 Group   1 Type C   : 20s17p16d8f3g contracted to 20s17p16d8f3g pattern {11111111111111111111/11111111111111111/1111111111111111/11111111/111}
 Group   2 Type H   : 17s7p3d contracted to 17s7p3d pattern {11111111111111111/1111111/111}

Atom   0C    basis set group =>   1
Atom   1H    basis set group =>   2
Atom   2H    basis set group =>   2
Atom   3H    basis set group =>   2
---------------------------------
AUXILIARY/C BASIS SET INFORMATION
---------------------------------
There are 2 groups of distinct atoms

 Group   1 Type C   : 20s17p16d8f3g contracted to 20s17p16d8f3g pattern {11111111111111111111/11111111111111111/1111111111111111/11111111/111}
 Group   2 Type H   : 17s7p3d contracted to 17s7p3d pattern {11111111111111111/1111111/111}

Atom   0C    basis set group =>   1
Atom   1H    basis set group =>   2
Atom   2H    basis set group =>   2
Atom   3H    basis set group =>   2
----------------------------------
AUXILIARY/JK BASIS SET INFORMATION
----------------------------------
There are 2 groups of distinct atoms

 Group   1 Type C   : 20s17p16d8f3g contracted to 20s17p16d8f3g pattern {11111111111111111111/11111111111111111/1111111111111111/11111111/111}
 Group   2 Type H   : 17s7p3d contracted to 17s7p3d pattern {11111111111111111/1111111/111}

Atom   0C    basis set group =>   1
Atom   1H    basis set group =>   2
Atom   2H    basis set group =>   2
Atom   3H    basis set group =>   2


           ************************************************************
           *        Program running with 4 parallel MPI-processes     *
           *              working on a common directory               *
           ************************************************************
------------------------------------------------------------------------------
                           ORCA GTO INTEGRAL CALCULATION
                           -- RI-GTO INTEGRALS CHOSEN --
------------------------------------------------------------------------------
------------------------------------------------------------------------------
                   ___                                                        
                  /   \      - P O W E R E D   B Y -                         
                 /     \                                                     
                 |  |  |   _    _      __       _____    __    __             
                 |  |  |  | |  | |    /  \     |  _  \  |  |  /  |          
                  \  \/   | |  | |   /    \    | | | |  |  | /  /          
                 / \  \   | |__| |  /  /\  \   | |_| |  |  |/  /          
                |  |  |   |  __  | /  /__\  \  |    /   |      \           
                |  |  |   | |  | | |   __   |  |    \   |  |\   \          
                \     /   | |  | | |  |  |  |  | |\  \  |  | \   \       
                 \___/    |_|  |_| |__|  |__|  |_| \__\ |__|  \__/        
                                                                              
                      - O R C A' S   B I G   F R I E N D -                    
                                      &                                       
                       - I N T E G R A L  F E E D E R -                       
                                                                              
 v1 FN, 2020, v2 2021                                                         
------------------------------------------------------------------------------


Reading SHARK input file /home/rwth0701/scratch/cs681498/orcajob__30556240-pEwT/6209.SHARKINP.tmp ... ok
----------------------
SHARK INTEGRAL PACKAGE
----------------------

Number of atoms                             ...      4
Number of basis functions                   ...     73
Number of shells                            ...     37
Maximum angular momentum                    ...      3
Integral batch strategy                     ... SHARK/LIBINT Hybrid
RI-J (if used) integral strategy            ... SPLIT-RIJ (Revised 2003 algorithm where possible)
Printlevel                                  ...      1
Contraction scheme used                     ... SEGMENTED contraction
Coulomb Range Separation                    ... NOT USED
Exchange Range Separation                   ... NOT USED
Finite Nucleus Model                        ... NOT USED
Auxiliary Coulomb fitting basis             ... AVAILABLE
   # of basis functions in Aux-J            ...    393
   # of shells in Aux-J                     ...    145
   Maximum angular momentum in Aux-J        ...      4
Auxiliary J/K fitting basis                 ... AVAILABLE
   # of basis functions in Aux-JK           ...    393
   # of shells in Aux-JK                    ...    145
   Maximum angular momentum in Aux-JK       ...      4
Auxiliary Correlation fitting basis         ... AVAILABLE
   # of basis functions in Aux-C            ...    393
   # of shells in Aux-C                     ...    145
   Maximum angular momentum in Aux-C        ...      4
Auxiliary 'external' fitting basis          ... NOT available
Integral threshold                          ...     1.000000e-10
Primitive cut-off                           ...     1.000000e-11
Primitive pair pre-selection threshold      ...     1.000000e-11

Calculating pre-screening integrals         ... done (  0.0 sec) Dimension = 37
Organizing shell pair data                  ... done (  0.0 sec)
Shell pair information
Total number of shell pairs                 ...       703
Shell pairs after pre-screening             ...       688
Total number of primitive shell pairs       ...      1300
Primitive shell pairs kept                  ...      1183
          la=0 lb=0:    261 shell pairs
          la=1 lb=0:    253 shell pairs
          la=1 lb=1:     66 shell pairs
          la=2 lb=0:     46 shell pairs
          la=2 lb=1:     22 shell pairs
          la=2 lb=2:      3 shell pairs
          la=3 lb=0:     23 shell pairs
          la=3 lb=1:     11 shell pairs
          la=3 lb=2:      2 shell pairs
          la=3 lb=3:      1 shell pairs

Calculating one electron integrals          ... done (  0.0 sec)
Calculating RI/J V-Matrix + Cholesky decomp.... done (  0.1 sec)
Calculating RI/JK V-Matrix + Cholesky decomp... done (  0.1 sec)
Calculating RI/C V-Matrix + Cholesky decomp.... done (  0.2 sec)
Calculating Nuclear repulsion               ... done (  0.0 sec) ENN=      9.520013151666 Eh

SHARK setup successfully completed in   0.7 seconds

Maximum memory used throughout the entire GTOINT-calculation: 13.7 MB


           ************************************************************
           *        Program running with 4 parallel MPI-processes     *
           *              working on a common directory               *
           ************************************************************
-------------------------------------------------------------------------------
                                 ORCA SCF
-------------------------------------------------------------------------------

------------
SCF SETTINGS
------------
Hamiltonian:
 Density Functional     Method          .... DFT(GTOs)
 Exchange Functional    Exchange        .... B88
   X-Alpha parameter    XAlpha          ....  0.666667
   Becke's b parameter  XBeta           ....  0.004200
 Correlation Functional Correlation     .... LYP
 LDA part of GGA corr.  LDAOpt          .... VWN-5
 Gradients option       PostSCFGGA      .... off
 Hybrid DFT is turned on
   Fraction HF Exchange ScalHFX         ....  0.200000
   Scaling of DF-GGA-X  ScalDFX         ....  0.720000
   Scaling of DF-GGA-C  ScalDFC         ....  0.810000
   Scaling of DF-LDA-C  ScalLDAC        ....  1.000000
   Perturbative correction              ....  0.000000
   Density functional embedding theory  .... OFF
   NL short-range parameter             ....  4.800000
 RI-approximation to the Coulomb term is turned on
   Number of AuxJ basis functions       .... 393
   RIJ-COSX (HFX calculated with COS-X)).... on


General Settings:
 Integral files         IntName         .... /home/rwth0701/scratch/cs681498/orcajob__30556240-pEwT/6209
 Hartree-Fock type      HFTyp           .... UHF
 Total Charge           Charge          ....    0
 Multiplicity           Mult            ....    2
 Number of Electrons    NEL             ....    9
 Basis Dimension        Dim             ....   73
 Nuclear Repulsion      ENuc            ....      9.5200131517 Eh

Convergence Acceleration:
 DIIS                   CNVDIIS         .... on
   Start iteration      DIISMaxIt       ....    12
   Startup error        DIISStart       ....  0.200000
   # of expansion vecs  DIISMaxEq       ....     5
   Bias factor          DIISBfac        ....   1.050
   Max. coefficient     DIISMaxC        ....  10.000
 Trust-Rad. Augm. Hess. CNVTRAH         .... auto
   Auto Start mean grad. ratio tolernc. ....  1.125000
   Auto Start start iteration           ....    20
   Auto Start num. interpolation iter.  ....    10
   Max. Number of Micro iterations      ....    16
   Max. Number of Macro iterations      .... Maxiter - #DIIS iter
   Number of Davidson start vectors     ....     2
   Converg. threshold I  (grad. norm)   ....   5.000e-05
   Converg. threshold II (energy diff.) ....   1.000e-06
   Grad. Scal. Fac. for Micro threshold ....   0.100
   Minimum threshold for Micro iter.    ....   0.010
   NR start threshold (gradient norm)   ....   0.001
   Initial trust radius                 ....   0.400
   Minimum AH scaling param. (alpha)    ....   1.000
   Maximum AH scaling param. (alpha)    .... 1000.000
   Orbital update algorithm             .... Taylor
   White noise on init. David. guess    .... on
   Maximum white noise                  ....   0.010
   Quad. conv. algorithm                .... NR
 SOSCF                  CNVSOSCF        .... off
 Level Shifting         CNVShift        .... on
   Level shift para.    LevelShift      ....    0.2500
   Turn off err/grad.   ShiftErr        ....    0.0010
 Zerner damping         CNVZerner       .... off
 Static damping         CNVDamp         .... on
   Fraction old density DampFac         ....    0.7000
   Max. Damping (<1)    DampMax         ....    0.9800
   Min. Damping (>=0)   DampMin         ....    0.0000
   Turn off err/grad.   DampErr         ....    0.1000
 Fernandez-Rico         CNVRico         .... off

SCF Procedure:
 Maximum # iterations   MaxIter         ....   125
 SCF integral mode      SCFMode         .... Direct
   Integral package                     .... SHARK and LIBINT hybrid scheme
 Reset frequency        DirectResetFreq ....    20
 Integral Threshold     Thresh          ....  1.000e-10 Eh
 Primitive CutOff       TCut            ....  1.000e-11 Eh

Convergence Tolerance:
 Convergence Check Mode ConvCheckMode   .... Total+1el-Energy
 Convergence forced     ConvForced      .... 0
 Energy Change          TolE            ....  1.000e-06 Eh
 1-El. energy change                    ....  1.000e-03 Eh
 DIIS Error             TolErr          ....  1.000e-06


Diagonalization of the overlap matrix:
Smallest eigenvalue                        ... 1.672e-03
Time for diagonalization                   ...    0.001 sec
Threshold for overlap eigenvalues          ... 1.000e-08
Number of eigenvalues below threshold      ... 0
Time for construction of square roots      ...    0.008 sec
Total time needed                          ...    0.010 sec

Time for model grid setup =    0.077 sec

------------------------------
INITIAL GUESS: MODEL POTENTIAL
------------------------------
Loading Hartree-Fock densities                     ... done
Calculating cut-offs                               ... done
Initializing the effective Hamiltonian             ... done
Setting up the integral package (SHARK)            ... done
Starting the Coulomb interaction                   ... done (   0.1 sec)
Reading the grid                                   ... done
Mapping shells                                     ... done
Starting the XC term evaluation                    ... done (   0.0 sec)
  promolecular density results
     # of electrons  =      8.998469897
     EX              =     -5.962650480
     EC              =     -0.259703530
     EX+EC           =     -6.222354010
Transforming the Hamiltonian                       ... done (   0.0 sec)
Diagonalizing the Hamiltonian                      ... done (   0.0 sec)
Back transforming the eigenvectors                 ... done (   0.0 sec)
Now organizing SCF variables                       ... done
                      ------------------
                      INITIAL GUESS DONE (   0.2 sec)
                      ------------------
-------------------
DFT GRID GENERATION
-------------------

General Integration Accuracy     IntAcc      ... 4.388
Radial Grid Type                 RadialGrid  ... OptM3 with GC (2021)
Angular Grid (max. ang.)         AngularGrid ... 4 (Lebedev-302)
Angular grid pruning method      GridPruning ... 4 (adaptive)
Weight generation scheme         WeightScheme... Becke
Basis function cutoff            BFCut       ... 1.0000e-10
Integration weight cutoff        WCut        ... 1.0000e-14
Angular grids for H and He will be reduced by one unit
Partially contracted basis set               ... off
Rotationally invariant grid construction     ... off

Total number of grid points                  ...    17061
Total number of batches                      ...      269
Average number of points per batch           ...       63
Average number of grid points per atom       ...     4265
Time for grid setup =    0.228 sec

--------------------
COSX GRID GENERATION
--------------------

GRIDX 1
-------
General Integration Accuracy     IntAcc      ... 3.816
Radial Grid Type                 RadialGrid  ... OptM3 with GC (2021)
Angular Grid (max. ang.)         AngularGrid ... 1 (Lebedev-50)
Angular grid pruning method      GridPruning ... 4 (adaptive)
Weight generation scheme         WeightScheme... Becke
Basis function cutoff            BFCut       ... 1.0000e-10
Integration weight cutoff        WCut        ... 1.0000e-14
Angular grids for H and He will be reduced by one unit
Partially contracted basis set               ... on
Rotationally invariant grid construction     ... off

Total number of grid points                  ...     2137
Total number of batches                      ...       35
Average number of points per batch           ...       61
Average number of grid points per atom       ...      534
UseSFitting                                  ... on

GRIDX 2
-------
General Integration Accuracy     IntAcc      ... 4.020
Radial Grid Type                 RadialGrid  ... OptM3 with GC (2021)
Angular Grid (max. ang.)         AngularGrid ... 2 (Lebedev-110)
Angular grid pruning method      GridPruning ... 4 (adaptive)
Weight generation scheme         WeightScheme... Becke
Basis function cutoff            BFCut       ... 1.0000e-10
Integration weight cutoff        WCut        ... 1.0000e-14
Angular grids for H and He will be reduced by one unit
Partially contracted basis set               ... on
Rotationally invariant grid construction     ... off

Total number of grid points                  ...     5047
Total number of batches                      ...       82
Average number of points per batch           ...       61
Average number of grid points per atom       ...     1262
UseSFitting                                  ... on

GRIDX 3
-------
General Integration Accuracy     IntAcc      ... 4.338
Radial Grid Type                 RadialGrid  ... OptM3 with GC (2021)
Angular Grid (max. ang.)         AngularGrid ... 3 (Lebedev-194)
Angular grid pruning method      GridPruning ... 4 (adaptive)
Weight generation scheme         WeightScheme... Becke
Basis function cutoff            BFCut       ... 1.0000e-10
Integration weight cutoff        WCut        ... 1.0000e-14
Angular grids for H and He will be reduced by one unit
Partially contracted basis set               ... on
Rotationally invariant grid construction     ... off

Total number of grid points                  ...    11754
Total number of batches                      ...      186
Average number of points per batch           ...       63
Average number of grid points per atom       ...     2938
UseSFitting                                  ... on

Time for X-Grid setup             =    0.357 sec

--------------
SCF ITERATIONS
--------------
ITER       Energy         Delta-E        Max-DP      RMS-DP      [F,P]     Damp
               ***  Starting incremental Fock matrix formation  ***
  0    -39.7846898901   0.000000000000 0.01484897  0.00048519  0.0848688 0.7000
  1    -39.8024998717  -0.017809981615 0.00928701  0.00036239  0.0439575 0.7000
                               ***Turning on DIIS***
  2    -39.8103420555  -0.007842183854 0.01547985  0.00063287  0.0178922 0.0000
  3    -39.8210513051  -0.010709249551 0.00662589  0.00027278  0.0258067 0.0000
  4    -39.8243753739  -0.003324068853 0.00257013  0.00007617  0.0048418 0.0000
  5    -39.8245111904  -0.000135816411 0.00089978  0.00003231  0.0014277 0.0000
  6    -39.8245290209  -0.000017830518 0.00052048  0.00002554  0.0005470 0.0000
               *** Restarting incremental Fock matrix formation ***
                                   *** Resetting DIIS ***
  7    -39.8245364131  -0.000007392189 0.00009739  0.00000286  0.0000844 0.0000
                 **** Energy Check signals convergence ****

               *****************************************************
               *                     SUCCESS                       *
               *           SCF CONVERGED AFTER   8 CYCLES          *
               *****************************************************

Old exchange energy                            =     -1.237271590 Eh
New exchange energy                            =     -1.237271863 Eh
Exchange energy change after final integration =     -0.000000272 Eh
Total energy after final integration           =    -39.824536761 Eh
Final COS-X integration done in                =     0.176 sec

----------------
TOTAL SCF ENERGY
----------------

Total Energy       :          -39.82453676 Eh           -1083.68074 eV

Components:
Nuclear Repulsion  :            9.52001315 Eh             259.05273 eV
Electronic Energy  :          -49.34454991 Eh           -1342.73347 eV
One Electron Energy:          -71.36043421 Eh           -1941.81613 eV
Two Electron Energy:           22.01588430 Eh             599.08267 eV
Max COSX asymmetry :            0.00000006 Eh               0.00000 eV

Virial components:
Potential Energy   :          -79.38183633 Eh           -2160.08958 eV
Kinetic Energy     :           39.55729957 Eh            1076.40884 eV
Virial Ratio       :            2.00675570


DFT components:
N(Alpha)           :        4.999999596865 electrons
N(Beta)            :        4.000000275872 electrons
N(Total)           :        8.999999872737 electrons
E(X)               :       -4.898496610911 Eh       
E(C)               :       -0.308779910145 Eh       
E(XC)              :       -5.207276521056 Eh       
DFET-embed. en.    :        0.000000000000 Eh       

---------------
SCF CONVERGENCE
---------------

  Last Energy change         ...   -7.5317e-08  Tolerance :   1.0000e-06
  Last MAX-Density change    ...    0.0000e+00  Tolerance :   1.0000e-05
  Last RMS-Density change    ...    0.0000e+00  Tolerance :   1.0000e-06
  Last DIIS Error            ...    5.7968e-05  Tolerance :   1.0000e-06

             **** THE GBW FILE WAS UPDATED (/home/rwth0701/scratch/cs681498/orcajob__30556240-pEwT/6209.gbw) ****
             **** DENSITY /home/rwth0701/scratch/cs681498/orcajob__30556240-pEwT/6209.scfp WAS UPDATED ****
             **** ENERGY FILE WAS UPDATED (/home/rwth0701/scratch/cs681498/orcajob__30556240-pEwT/6209.en.tmp) ****
----------------------
UHF SPIN CONTAMINATION
----------------------

Warning: in a DFT calculation there is little theoretical justification to 
         calculate <S**2> as in Hartree-Fock theory. We will do it anyways
         but you should keep in mind that the values have only limited relevance

Expectation value of <S**2>     :     0.753825
Ideal value S*(S+1) for S=0.5   :     0.750000
Deviation                       :     0.003825

             **** THE GBW FILE WAS UPDATED (/home/rwth0701/scratch/cs681498/orcajob__30556240-pEwT/6209.gbw) ****
             **** DENSITY /home/rwth0701/scratch/cs681498/orcajob__30556240-pEwT/6209.scfp WAS UPDATED ****
----------------
ORBITAL ENERGIES
----------------
                 SPIN UP ORBITALS
  NO   OCC          E(Eh)            E(eV) 
   0   1.0000     -10.189700      -277.2758 
   1   1.0000      -0.683559       -18.6006 
   2   1.0000      -0.435682       -11.8555 
   3   1.0000      -0.402300       -10.9471 
   4   1.0000      -0.235205        -6.4003 
   5   0.0000       0.000272         0.0074 
   6   0.0000       0.035268         0.9597 
   7   0.0000       0.038025         1.0347 
   8   0.0000       0.047372         1.2891 
   9   0.0000       0.083479         2.2716 
  10   0.0000       0.090020         2.4496 
  11   0.0000       0.096876         2.6361 
  12   0.0000       0.221368         6.0237 
  13   0.0000       0.223084         6.0704 
  14   0.0000       0.248306         6.7568 
  15   0.0000       0.275864         7.5067 
  16   0.0000       0.285953         7.7812 
  17   0.0000       0.319757         8.7010 
  18   0.0000       0.335347         9.1253 
  19   0.0000       0.552266        15.0279 
  20   0.0000       0.559563        15.2265 
  21   0.0000       0.737423        20.0663 
  22   0.0000       0.744967        20.2716 
  23   0.0000       0.773922        21.0595 
  24   0.0000       0.828364        22.5409 
  25   0.0000       0.876657        23.8550 
  26   0.0000       0.892071        24.2745 
  27   0.0000       0.934128        25.4189 
  28   0.0000       0.958610        26.0851 
  29   0.0000       1.050949        28.5978 
  30   0.0000       1.063373        28.9359 
  31   0.0000       1.111477        30.2448 
  32   0.0000       1.162793        31.6412 
  33   0.0000       1.167162        31.7601 
  34   0.0000       1.437043        39.1039 
  35   0.0000       1.475517        40.1509 
  36   0.0000       1.497466        40.7481 
  37   0.0000       1.685230        45.8574 
  38   0.0000       1.731285        47.1107 
  39   0.0000       1.751261        47.6542 
  40   0.0000       2.713739        73.8446 
  41   0.0000       2.743176        74.6456 
  42   0.0000       2.865061        77.9623 
  43   0.0000       2.893144        78.7265 
  44   0.0000       2.913625        79.2838 
  45   0.0000       2.979797        81.0844 
  46   0.0000       2.997120        81.5558 
  47   0.0000       3.153199        85.8029 
  48   0.0000       3.165171        86.1287 
  49   0.0000       3.246433        88.3399 
  50   0.0000       3.265367        88.8552 
  51   0.0000       3.714253       101.0700 
  52   0.0000       3.731844       101.5486 
  53   0.0000       3.778321       102.8133 
  54   0.0000       3.845840       104.6506 
  55   0.0000       3.941797       107.2617 
  56   0.0000       4.007039       109.0371 
  57   0.0000       4.100317       111.5753 
  58   0.0000       4.149050       112.9014 
  59   0.0000       4.155350       113.0728 
  60   0.0000       4.614008       125.5535 
  61   0.0000       4.975720       135.3962 
  62   0.0000       5.278364       143.6316 
  63   0.0000       5.417958       147.4301 
  64   0.0000       5.516426       150.1096 
  65   0.0000       6.005539       163.4190 
  66   0.0000       6.157891       167.5647 
  67   0.0000       7.696631       209.4360 
  68   0.0000      29.045071       790.3566 
  69   0.0000      37.058074      1008.4015 
  70   0.0000      37.210890      1012.5598 
  71   0.0000      37.233873      1013.1852 
  72   0.0000     133.497450      3632.6503 

                 SPIN DOWN ORBITALS
  NO   OCC          E(Eh)            E(eV) 
   0   1.0000     -10.175148      -276.8799 
   1   1.0000      -0.643891       -17.5212 
   2   1.0000      -0.426240       -11.5986 
   3   1.0000      -0.393176       -10.6989 
   4   0.0000      -0.077387        -2.1058 
   5   0.0000       0.003589         0.0977 
   6   0.0000       0.034927         0.9504 
   7   0.0000       0.037705         1.0260 
   8   0.0000       0.060661         1.6507 
   9   0.0000       0.084760         2.3064 
  10   0.0000       0.095526         2.5994 
  11   0.0000       0.097404         2.6505 
  12   0.0000       0.222455         6.0533 
  13   0.0000       0.224639         6.1127 
  14   0.0000       0.267377         7.2757 
  15   0.0000       0.291493         7.9319 
  16   0.0000       0.310358         8.4453 
  17   0.0000       0.324384         8.8269 
  18   0.0000       0.349111         9.4998 
  19   0.0000       0.578788        15.7496 
  20   0.0000       0.585989        15.9456 
  21   0.0000       0.740268        20.1437 
  22   0.0000       0.746351        20.3093 
  23   0.0000       0.799469        21.7546 
  24   0.0000       0.826336        22.4857 
  25   0.0000       0.880532        23.9605 
  26   0.0000       0.896434        24.3932 
  27   0.0000       0.951839        25.9008 
  28   0.0000       0.977656        26.6034 
  29   0.0000       1.073109        29.2008 
  30   0.0000       1.121429        30.5156 
  31   0.0000       1.134614        30.8744 
  32   0.0000       1.176017        32.0010 
  33   0.0000       1.179006        32.0824 
  34   0.0000       1.452010        39.5112 
  35   0.0000       1.485492        40.4223 
  36   0.0000       1.508507        41.0486 
  37   0.0000       1.693732        46.0888 
  38   0.0000       1.738772        47.3144 
  39   0.0000       1.758216        47.8435 
  40   0.0000       2.754549        74.9551 
  41   0.0000       2.783852        75.7525 
  42   0.0000       2.867532        78.0295 
  43   0.0000       2.917749        79.3960 
  44   0.0000       2.970802        80.8396 
  45   0.0000       3.004958        81.7691 
  46   0.0000       3.034417        82.5707 
  47   0.0000       3.206090        87.2422 
  48   0.0000       3.215238        87.4911 
  49   0.0000       3.303531        89.8936 
  50   0.0000       3.324594        90.4668 
  51   0.0000       3.732633       101.5701 
  52   0.0000       3.769460       102.5722 
  53   0.0000       3.781542       102.9010 
  54   0.0000       3.844722       104.6202 
  55   0.0000       3.958022       107.7033 
  56   0.0000       4.022046       109.4454 
  57   0.0000       4.104130       111.6791 
  58   0.0000       4.157818       113.1400 
  59   0.0000       4.173810       113.5752 
  60   0.0000       4.613990       125.5530 
  61   0.0000       4.994630       135.9108 
  62   0.0000       5.280491       143.6895 
  63   0.0000       5.416544       147.3917 
  64   0.0000       5.513198       150.0217 
  65   0.0000       6.007099       163.4615 
  66   0.0000       6.160862       167.6456 
  67   0.0000       7.731666       210.3893 
  68   0.0000      29.071951       791.0880 
  69   0.0000      37.045501      1008.0593 
  70   0.0000      37.199034      1012.2372 
  71   0.0000      37.221949      1012.8607 
  72   0.0000     133.505384      3632.8662 

                    ********************************
                    * MULLIKEN POPULATION ANALYSIS *
                    ********************************

--------------------------------------------
MULLIKEN ATOMIC CHARGES AND SPIN POPULATIONS
--------------------------------------------
   0 C :   -0.426988    1.106438
   1 H :    0.132392   -0.039716
   2 H :    0.150138   -0.032305
   3 H :    0.144458   -0.034418
Sum of atomic charges         :    0.0000000
Sum of atomic spin populations:    1.0000000

-----------------------------------------------------
MULLIKEN REDUCED ORBITAL CHARGES AND SPIN POPULATIONS
-----------------------------------------------------
CHARGE
  0 C s       :     3.341985  s :     3.341985
      pz      :     1.001227  p :     3.057874
      px      :     1.041777
      py      :     1.014870
      dz2     :     0.002148  d :     0.024176
      dxz     :     0.003965
      dyz     :     0.006429
      dx2y2   :     0.004443
      dxy     :     0.007192
      f0      :     0.000428  f :     0.002953
      f+1     :     0.000144
      f-1     :     0.000369
      f+2     :     0.000799
      f-2     :     0.000441
      f+3     :     0.000088
      f-3     :     0.000685
  1 H s       :     0.844132  s :     0.844132
      pz      :     0.007690  p :     0.023477
      px      :     0.007809
      py      :     0.007978
  2 H s       :     0.821570  s :     0.821570
      pz      :     0.010853  p :     0.028292
      px      :     0.007086
      py      :     0.010353
  3 H s       :     0.828275  s :     0.828275
      pz      :     0.009615  p :     0.027266
      px      :     0.009055
      py      :     0.008597

SPIN
  0 C s       :     0.067874  s :     0.067874
      pz      :     0.578202  p :     1.042876
      px      :     0.073801
      py      :     0.390872
      dz2     :    -0.000468  d :    -0.002979
      dxz     :     0.000127
      dyz     :    -0.003337
      dx2y2   :     0.000215
      dxy     :     0.000483
      f0      :    -0.000360  f :    -0.001332
      f+1     :    -0.000128
      f-1     :    -0.000146
      f+2     :    -0.000212
      f-2     :    -0.000339
      f+3     :    -0.000039
      f-3     :    -0.000107
  1 H s       :    -0.048363  s :    -0.048363
      pz      :     0.005246  p :     0.008647
      px      :     0.000145
      py      :     0.003256
  2 H s       :    -0.043356  s :    -0.043356
      pz      :     0.006403  p :     0.011051
      px      :     0.000246
      py      :     0.004403
  3 H s       :    -0.044641  s :    -0.044641
      pz      :     0.006258  p :     0.010223
      px      :     0.000118
      py      :     0.003847


                     *******************************
                     * LOEWDIN POPULATION ANALYSIS *
                     *******************************

-------------------------------------------
LOEWDIN ATOMIC CHARGES AND SPIN POPULATIONS
-------------------------------------------
   0 C :   -0.162775    0.915042
   1 H :    0.078582    0.019284
   2 H :    0.038344    0.034187
   3 H :    0.045849    0.031487

----------------------------------------------------
LOEWDIN REDUCED ORBITAL CHARGES AND SPIN POPULATIONS
----------------------------------------------------
CHARGE
  0 C s       :     2.895365  s :     2.895365
      pz      :     0.992128  p :     3.169326
      px      :     1.133618
      py      :     1.043580
      dz2     :     0.007175  d :     0.090729
      dxz     :     0.017298
      dyz     :     0.014827
      dx2y2   :     0.020456
      dxy     :     0.030972
      f0      :     0.001182  f :     0.007355
      f+1     :     0.000459
      f-1     :     0.000953
      f+2     :     0.001722
      f-2     :     0.001260
      f+3     :     0.000216
      f-3     :     0.001563
  1 H s       :     0.797922  s :     0.797922
      pz      :     0.031652  p :     0.123496
      px      :     0.051371
      py      :     0.040474
  2 H s       :     0.809481  s :     0.809481
      pz      :     0.057950  p :     0.152175
      px      :     0.033944
      py      :     0.060281
  3 H s       :     0.806631  s :     0.806631
      pz      :     0.045528  p :     0.147520
      px      :     0.061913
      py      :     0.040079

SPIN
  0 C s       :     0.020415  s :     0.020415
      pz      :     0.515165  p :     0.903502
      px      :     0.047449
      py      :     0.340888
      dz2     :    -0.000760  d :    -0.007549
      dxz     :    -0.000915
      dyz     :    -0.003424
      dx2y2   :    -0.000928
      dxy     :    -0.001522
      f0      :    -0.000338  f :    -0.001326
      f+1     :    -0.000114
      f-1     :    -0.000087
      f+2     :    -0.000215
      f-2     :    -0.000310
      f+3     :    -0.000044
      f-3     :    -0.000218
  1 H s       :    -0.019903  s :    -0.019903
      pz      :     0.020404  p :     0.039187
      px      :     0.004206
      py      :     0.014577
  2 H s       :    -0.016498  s :    -0.016498
      pz      :     0.028239  p :     0.050685
      px      :     0.002404
      py      :     0.020042
  3 H s       :    -0.016844  s :    -0.016844
      pz      :     0.026203  p :     0.048331
      px      :     0.004976
      py      :     0.017152


                      *****************************
                      * MAYER POPULATION ANALYSIS *
                      *****************************

  NA   - Mulliken gross atomic population
  ZA   - Total nuclear charge
  QA   - Mulliken gross atomic charge
  VA   - Mayer's total valence
  BVA  - Mayer's bonded valence
  FA   - Mayer's free valence

  ATOM       NA         ZA         QA         VA         BVA        FA
  0 C      6.4270     6.0000    -0.4270     3.8723     2.9258     0.9466
  1 H      0.8676     1.0000     0.1324     0.9818     0.9795     0.0023
  2 H      0.8499     1.0000     0.1501     0.9845     0.9825     0.0019
  3 H      0.8555     1.0000     0.1445     0.9815     0.9795     0.0020

  Mayer bond orders larger than 0.100000
B(  0-C ,  1-H ) :   0.9763 B(  0-C ,  2-H ) :   0.9744 B(  0-C ,  3-H ) :   0.9751 


-------
TIMINGS
-------

Total SCF time: 0 days 0 hours 0 min 6 sec 

Total time                  ....       6.488 sec
Sum of individual times     ....       5.622 sec  ( 86.7%)

Fock matrix formation       ....       4.660 sec  ( 71.8%)
  Split-RI-J                ....       0.470 sec  ( 10.1% of F)
  Chain of spheres X        ....       0.925 sec  ( 19.9% of F)
  XC integration            ....       1.901 sec  ( 40.8% of F)
    Basis function eval.    ....       0.113 sec  (  5.9% of XC)
    Density eval.           ....       0.116 sec  (  6.1% of XC)
    XC-Functional eval.     ....       0.093 sec  (  4.9% of XC)
    XC-Potential eval.      ....       0.158 sec  (  8.3% of XC)
Diagonalization             ....       0.056 sec  (  0.9%)
Density matrix formation    ....       0.002 sec  (  0.0%)
Population analysis         ....       0.064 sec  (  1.0%)
Initial guess               ....       0.074 sec  (  1.1%)
Orbital Transformation      ....       0.000 sec  (  0.0%)
Orbital Orthonormalization  ....       0.000 sec  (  0.0%)
DIIS solution               ....       0.104 sec  (  1.6%)
Grid generation             ....       0.662 sec  ( 10.2%)

Maximum memory used throughout the entire SCF-calculation: 59.0 MB

-------------------------   --------------------
FINAL SINGLE POINT ENERGY       -39.824536760794
-------------------------   --------------------

   --->>> g-tensor requested, so NeedSOC=true

                            ***************************************
                            *     ORCA property calculations      *
                            ***************************************

                                    ---------------------
                                    Active property flags
                                    ---------------------
   (+) Dipole Moment
   (+) g-tensor
   (+) Nuclear properties (Hyperfine,Quadrupole)
   (+) Spin-Orbit Integrals are needed


------------------------------------------------------------------------------
                       ORCA ELECTRIC PROPERTIES CALCULATION
------------------------------------------------------------------------------

Dipole Moment Calculation                       ... on
Quadrupole Moment Calculation                   ... off
Polarizability Calculation                      ... off
GBWName                                         ... /home/rwth0701/scratch/cs681498/orcajob__30556240-pEwT/6209.gbw
Electron density                                ... /home/rwth0701/scratch/cs681498/orcajob__30556240-pEwT/6209.scfp
The origin for moment calculation is the CENTER OF MASS  = (-27.925095, -59.871618 -26.859588)

-------------
DIPOLE MOMENT
-------------
                                X             Y             Z
Electronic contribution:      0.08062      -0.13141      -0.03351
Nuclear contribution   :     -0.06865       0.14645       0.01806
                        -----------------------------------------
Total Dipole Moment    :      0.01197       0.01504      -0.01545
                        -----------------------------------------
Magnitude (a.u.)       :      0.02466
Magnitude (Debye)      :      0.06269



--------------------
Rotational spectrum 
--------------------
 
Rotational constants in cm-1:     9.592597     8.896992     4.620625 
Rotational constants in MHz : 287578.832802 266725.121587 138522.848802 

 Dipole components along the rotational axes: 
x,y,z [a.u.] :     0.000593     0.007752    -0.023405 
x,y,z [Debye]:     0.001509     0.019705    -0.059490 

 


           ************************************************************
           *        Program running with 4 parallel MPI-processes     *
           *              working on a common directory               *
           ************************************************************
------------------------------------------------------------------------------
                         ORCA SPIN-ORBIT COUPLING CALCULATION
------------------------------------------------------------------------------

GBW file                                    ... /home/rwth0701/scratch/cs681498/orcajob__30556240-pEwT/6209.gbw
Input density                               ... /home/rwth0701/scratch/cs681498/orcajob__30556240-pEwT/6209.scfp
Output integrals                            ... /home/rwth0701/scratch/cs681498/orcajob__30556240-pEwT/6209
Operator type                               ... Mean-field/Effective potential
   One-Electron Terms                       ... 1
   Coulomb Contribution                     ... 3
   Exchange Contribution                    ... 3
   Correlation Contribution                 ... 0
   Maximum number of centers                ... 4
SHARK 2-electron RIJ-SOMF                   ... done (  0.1 sec)
SHARK 1-electron  MaxCenter=4               ... done (  0.0 sec)
SHARK 2-electron DoJ,X=0,1 MaxCenter=1      ... done (  0.1 sec)

Maximum memory used throughout the entire SOC-calculation: 11.3 MB
Total time for SOC:  2.762


           ************************************************************
           *        Program running with 4 parallel MPI-processes     *
           *              working on a common directory               *
           ************************************************************
------------------------------------------------------------------------------
                                ORCA EPR/NMR CALCULATION
------------------------------------------------------------------------------

GBWName                      ... /home/rwth0701/scratch/cs681498/orcajob__30556240-pEwT/6209.gbw
Electron density             ... /home/rwth0701/scratch/cs681498/orcajob__30556240-pEwT/6209.scfp
Spin density                 ... /home/rwth0701/scratch/cs681498/orcajob__30556240-pEwT/6209.scfr
Spin-orbit integrals         ... /home/rwth0701/scratch/cs681498/orcajob__30556240-pEwT/6209
Treatment of gauge           ... GIAO (approximations 1/2el = 0,0)
Details of the CP(SCF) procedure:
       Solver   = POPLE   
       MaxIter  =    64   
       Tolerance=    1.000e-03
       COSX Grid=     1   
       Op-0     =   0-  4 =>   5- 72
       Op-1     =   0-  3 =>   4- 72
Multiplicity                 ... 2
g-tensor                     ... 1
NMR chemical shifts          ... 0
NMR spin-spin couplings      ... 0
NMR spectrum                 ... 0
Number of nuclei for epr/nmr ... 4
   Nucleus:   1H 
       Hyperfine : Isotope=    1 I=   0.500 P= 533.551
       Quadrupole: Isotope=    2 I=   1.000 Q=   0.003
       Spin-Orbit: Zeff=   1.000
       Nuclear Spin-Spin: Gn=   0.000
       EPRNMR Input: 
       rho(0)=N f(grad)=N a(iso)=Y a(dip)=Y a(orb)=Y sigma(nmr)=N spin-spin(nmr)=all-N,DSO-N,PSO-N,FC-N,SD-N
   Nucleus:   2H 
       Hyperfine : Isotope=    1 I=   0.500 P= 533.551
       Quadrupole: Isotope=    2 I=   1.000 Q=   0.003
       Spin-Orbit: Zeff=   1.000
       Nuclear Spin-Spin: Gn=   0.000
       EPRNMR Input: 
       rho(0)=N f(grad)=N a(iso)=Y a(dip)=Y a(orb)=Y sigma(nmr)=N spin-spin(nmr)=all-N,DSO-N,PSO-N,FC-N,SD-N
   Nucleus:   3H 
       Hyperfine : Isotope=    1 I=   0.500 P= 533.551
       Quadrupole: Isotope=    2 I=   1.000 Q=   0.003
       Spin-Orbit: Zeff=   1.000
       Nuclear Spin-Spin: Gn=   0.000
       EPRNMR Input: 
       rho(0)=N f(grad)=N a(iso)=Y a(dip)=Y a(orb)=Y sigma(nmr)=N spin-spin(nmr)=all-N,DSO-N,PSO-N,FC-N,SD-N
   Nucleus:   0C 
       Hyperfine : Isotope=   13 I=   0.500 P= 134.190
       Quadrupole: Isotope=   13 I=   0.500 Q=   0.000
       Spin-Orbit: Zeff=   3.600
       Nuclear Spin-Spin: Gn=   0.000
       EPRNMR Input: 
       rho(0)=N f(grad)=N a(iso)=Y a(dip)=Y a(orb)=Y sigma(nmr)=N spin-spin(nmr)=all-N,DSO-N,PSO-N,FC-N,SD-N
Forming RHS of the CP-SCF equations         ... 
Calculating right hand sides for GIAO treatment        ... 
  Entering RightHandSide GIAO. ScalHFX=    0.2000 NeedHFX=1
     -> 1-electron GIAO integrals will be done analytically
     -> RIJCOSX used in SCF. Same chosen for GIAO calculation.
     Making grid for GIAO integrations   ...

GRID GIAO
---------

General Integration Accuracy     IntAcc      ... 4.388
Radial Grid Type                 RadialGrid  ... OptM3 with GC (2021)
Angular Grid (max. ang.)         AngularGrid ... 4 (Lebedev-302)
Angular grid pruning method      GridPruning ... 4 (adaptive)
Weight generation scheme         WeightScheme... Becke
Basis function cutoff            BFCut       ... 1.0000e-10
Integration weight cutoff        WCut        ... 1.0000e-14
Angular grids for H and He will be reduced by one unit
Partially contracted basis set               ... off
Rotationally invariant grid construction     ... off

Total number of grid points                  ...    17061
Total number of batches                      ...      269
Average number of points per batch           ...       63
Average number of grid points per atom       ...     4265

  One-electron GIAO integrals (SHARK)     ... done
  Calculating G(B)[P]                     ... (RI-J: SHARK-ok) (COSX-ok) (add-J+K:ok) => dG/dB done
  DFT XC-terms                            ... done
  Extracting occupied and virtual blocks  ... 
  Operator  0  NO=   5 NV=  68 
  Operator  1  NO=   4 NV=  69 
  Transforming and RHS contribution       ... done
  Adding eps_i * S(B)_ai terms            ... done
  Projecting overlap derivatives          ... done
  Building G[dS/dB_ij] (COSX)             ... done
  Transforming to MO basis                ... done
  Summing G[dS/dB_ij] into RHS contribs.  ... done

  GIAO profiling information: 
    Total GIAO time               ...       0.8 sec
       GIAO 1-electron integrals  ...       0.0 sec (  0.4%)
       GIAO G(dS/dB) terms        ...       0.1 sec ( 12.0%)
       GIAO RI-J                  ...       0.1 sec ( 12.8%)
       GIAO COSX                  ...       0.2 sec ( 21.2%)
       GIAO XC-terms              ...       0.3 sec ( 36.1%)

  GIAO right hand side done


------------------------------------------------------------------------------
                           ORCA CP-SCF CALCULATION
------------------------------------------------------------------------------

Input orbitals are from        ... /home/rwth0701/scratch/cs681498/orcajob__30556240-pEwT/6209.gbw
Input Perturbation             ... /home/rwth0701/scratch/cs681498/orcajob__30556240-pEwT/6209.pin.tmp
Wavefunction output            ... /home/rwth0701/scratch/cs681498/orcajob__30556240-pEwT/6209.pout.tmp
Perturbation mode              ... Imaginary perturbation
Solver                         ... POPLE
Max. number of iterations      ... 64
Convergence tolerance          ... 1.000e-03
Integral handling              ... Direct
DFT GridXC                     ... 1
COSX GridX                     ... 1
COSX IntAccX                   ... 3.067
COSX Algorithm                 ... Auto
Number of perturbations        ... 3
Number of operators            ... 2
Orbital ranges used for CP-SCF:
 Operator 0:  Orbitals   0...  4  to   5... 72
 Operator 1:  Orbitals   0...  3  to   4... 72
Variables per perturbation     ... 616
DFT calculation                         ... on
XC functional terms                     ... off
Hybrid DFT                              ... on
   Exchange mixing (SCF)                ...  0.200
   Exchange mixing (CP-SCF)             ...  0.200
   GGA exch. scaling(SCF)               ...  0.720
   GGA exch. scaling (CP-SCF)           ...  0.720
   GGA corr. scaling (SCF)              ...  0.810
   GGA corr. scaling (CP-SCF)           ...  0.810

CP-SCF GRID
-----------

General Integration Accuracy     IntAcc      ... 3.467
Radial Grid Type                 RadialGrid  ... OptM3 with GC (2021)
Angular Grid (max. ang.)         AngularGrid ... 1 (Lebedev-50)
Angular grid pruning method      GridPruning ... 4 (adaptive)
Weight generation scheme         WeightScheme... Becke
Basis function cutoff            BFCut       ... 1.0000e-10
Integration weight cutoff        WCut        ... 1.0000e-14
Angular grids for H and He will be reduced by one unit
Partially contracted basis set               ... off
Rotationally invariant grid construction     ... off

Total number of grid points                  ...     2325
Total number of batches                      ...       38
Average number of points per batch           ...       61
Average number of grid points per atom       ...      581

CP-SCF GRIDX
------------

General Integration Accuracy     IntAcc      ... 3.067
Radial Grid Type                 RadialGrid  ... OptM3 with GC (2021)
Angular Grid (max. ang.)         AngularGrid ... 1 (Lebedev-50)
Angular grid pruning method      GridPruning ... 4 (adaptive)
Weight generation scheme         WeightScheme... Becke
Basis function cutoff            BFCut       ... 1.0000e-10
Integration weight cutoff        WCut        ... 1.0000e-14
Angular grids for H and He will be reduced by one unit
Partially contracted basis set               ... on
Rotationally invariant grid construction     ... off

Total number of grid points                  ...     1070
Total number of batches                      ...       20
Average number of points per batch           ...       53
Average number of grid points per atom       ...      268

Memory available               ... 1014.6 MB
Memory needed per perturbation ...   0.4 MB
Perturbations treated per batch... 3
Number of batches              ... 1
     CP-SCF ITERATION   0:   3.1996e+00 (   0.1 sec   0/  3 done)
     CP-SCF ITERATION   1:   3.7030e-02 (   0.1 sec   0/  3 done)
     CP-SCF ITERATION   2:   4.3030e-03 (   0.1 sec   0/  3 done)
     CP-SCF ITERATION   3:   2.1125e-04 (   0.1 sec   3/  3 done)
                    *** THE CP-SCF HAS CONVERGED ***

Forming final perturbed densities           ... done
Transforming perturbed density to AO basis  ... done

Magnetic field perturbation calculated in  1.344 sec
GIAO: Diamagnetic terms      (analytic)     (SHARK) ... done
GIAO: 1el-Paramagnetic terms (analytic)     (SHARK) ... done

-------------------
ELECTRONIC G-MATRIX
-------------------

 The g-matrix: 
              2.0028594   -0.0000810    0.0000951
             -0.0000811    2.0026477    0.0003151
              0.0000870    0.0003037    2.0024990

 gel          2.0023193    2.0023193    2.0023193
 gRMC        -0.0001275   -0.0001275   -0.0001275
 gDSO(tot)    0.0000344    0.0000709    0.0000708
 gPSO(tot)    0.0000054    0.0006163    0.0006332
             ----------   ----------   ----------
 g(tot)       2.0022315    2.0028789    2.0028957 iso=  2.0026687
 Delta-g     -0.0000877    0.0005596    0.0005764 iso=  0.0003494
 Orientation: 
  X          -0.1902660   -0.8547435    0.4829207
  Y          -0.6093954   -0.2828373   -0.7407026
  Z           0.7696987   -0.4352202   -0.4670624

Notes:  (1) The g-matrix conforms to the "BgS" spin Hamiltonian convention. 
        (2) The principal values are square roots of the eigenvalues of g*gT.
        (3) Orientations are eigenvectors of g*gT written as column vectors.
        (4) Individual contributions are projections of the full matrices onto the eigenvectors of g*gT.
        (5) Tensor is right-handed.


-----------------------------------------
ELECTRIC AND MAGNETIC HYPERFINE STRUCTURE
-----------------------------------------

 -----------------------------------------------------------
 Nucleus   1H : A:ISTP=    1 I=  0.5 P=533.5514 MHz/au**3
                Q:ISTP=    2 I=  1.0 Q=  0.0029 barn     
 -----------------------------------------------------------
 Solving for nuclear perturbation:
Forming RHS of the CP-SCF equations         ... 
Calc. nucleus orbit integrals (SHARK)       ... done

------------------------------------------------------------------------------
                           ORCA CP-SCF CALCULATION
------------------------------------------------------------------------------

Input orbitals are from        ... /home/rwth0701/scratch/cs681498/orcajob__30556240-pEwT/6209.gbw
Input Perturbation             ... /home/rwth0701/scratch/cs681498/orcajob__30556240-pEwT/6209.pin.tmp
Wavefunction output            ... /home/rwth0701/scratch/cs681498/orcajob__30556240-pEwT/6209.pout.tmp
Perturbation mode              ... Imaginary perturbation
Solver                         ... POPLE
Max. number of iterations      ... 64
Convergence tolerance          ... 1.000e-03
Integral handling              ... Direct
DFT GridXC                     ... 1
COSX GridX                     ... 1
COSX IntAccX                   ... 3.067
COSX Algorithm                 ... Auto
Number of perturbations        ... 3
Number of operators            ... 2
Orbital ranges used for CP-SCF:
 Operator 0:  Orbitals   0...  4  to   5... 72
 Operator 1:  Orbitals   0...  3  to   4... 72
Variables per perturbation     ... 616
DFT calculation                         ... on
XC functional terms                     ... off
Hybrid DFT                              ... on
   Exchange mixing (SCF)                ...  0.200
   Exchange mixing (CP-SCF)             ...  0.200
   GGA exch. scaling(SCF)               ...  0.720
   GGA exch. scaling (CP-SCF)           ...  0.720
   GGA corr. scaling (SCF)              ...  0.810
   GGA corr. scaling (CP-SCF)           ...  0.810

CP-SCF GRID
-----------

General Integration Accuracy     IntAcc      ... 3.467
Radial Grid Type                 RadialGrid  ... OptM3 with GC (2021)
Angular Grid (max. ang.)         AngularGrid ... 1 (Lebedev-50)
Angular grid pruning method      GridPruning ... 4 (adaptive)
Weight generation scheme         WeightScheme... Becke
Basis function cutoff            BFCut       ... 1.0000e-10
Integration weight cutoff        WCut        ... 1.0000e-14
Angular grids for H and He will be reduced by one unit
Partially contracted basis set               ... off
Rotationally invariant grid construction     ... off

Total number of grid points                  ...     2325
Total number of batches                      ...       38
Average number of points per batch           ...       61
Average number of grid points per atom       ...      581

CP-SCF GRIDX
------------

General Integration Accuracy     IntAcc      ... 3.067
Radial Grid Type                 RadialGrid  ... OptM3 with GC (2021)
Angular Grid (max. ang.)         AngularGrid ... 1 (Lebedev-50)
Angular grid pruning method      GridPruning ... 4 (adaptive)
Weight generation scheme         WeightScheme... Becke
Basis function cutoff            BFCut       ... 1.0000e-10
Integration weight cutoff        WCut        ... 1.0000e-14
Angular grids for H and He will be reduced by one unit
Partially contracted basis set               ... on
Rotationally invariant grid construction     ... off

Total number of grid points                  ...     1070
Total number of batches                      ...       20
Average number of points per batch           ...       53
Average number of grid points per atom       ...      268

Memory available               ... 968.0 MB
Memory needed per perturbation ...   0.4 MB
Perturbations treated per batch... 3
Number of batches              ... 1
     CP-SCF ITERATION   0:   5.3650e-02 (   0.1 sec   0/  3 done)
     CP-SCF ITERATION   1:   2.0110e-03 (   0.1 sec   0/  3 done)
     CP-SCF ITERATION   2:   1.6600e-04 (   0.1 sec   3/  3 done)
                    *** THE CP-SCF HAS CONVERGED ***

Forming final perturbed densities           ... done
Transforming perturbed density to AO basis  ... done

 Raw HFC matrix (all values in MHz): 
 -----------------------------------
               -54.1786             -27.6145             -17.3752
               -27.6143             -67.4214              -6.8177
               -17.3751              -6.8178             -79.0634

 A(FC)         -66.9014             -66.9014             -66.9014
 A(SD)          36.4915              -1.8831             -34.6085
 A(ORB+DIA)      0.0131              -0.0007               0.0283    A(PC) =   0.0136
 A(ORB)          0.0089               0.0003               0.0272    A(PC) =   0.0121
 A(DIA)          0.0042              -0.0011               0.0011    A(PC) =   0.0014
             ----------           ----------           ----------
 A(Tot)        -30.3968             -68.7851            -101.4815    A(iso)=  -66.8878
 Orientation: 
  X           0.8020435            0.2195425            0.5554524
  Y          -0.5599097            0.6001119            0.5712853
  Z          -0.2079122           -0.7691988            0.6042398

Notes:  (1) The A matrix conforms to the "SAI" spin Hamiltonian convention.
        (2) Tensor is right-handed.

 -----------------------------------------------------------
 Nucleus   2H : A:ISTP=    1 I=  0.5 P=533.5514 MHz/au**3
                Q:ISTP=    2 I=  1.0 Q=  0.0029 barn     
 -----------------------------------------------------------
 Solving for nuclear perturbation:
Forming RHS of the CP-SCF equations         ... 
Calc. nucleus orbit integrals (SHARK)       ... done

------------------------------------------------------------------------------
                           ORCA CP-SCF CALCULATION
------------------------------------------------------------------------------

Input orbitals are from        ... /home/rwth0701/scratch/cs681498/orcajob__30556240-pEwT/6209.gbw
Input Perturbation             ... /home/rwth0701/scratch/cs681498/orcajob__30556240-pEwT/6209.pin.tmp
Wavefunction output            ... /home/rwth0701/scratch/cs681498/orcajob__30556240-pEwT/6209.pout.tmp
Perturbation mode              ... Imaginary perturbation
Solver                         ... POPLE
Max. number of iterations      ... 64
Convergence tolerance          ... 1.000e-03
Integral handling              ... Direct
DFT GridXC                     ... 1
COSX GridX                     ... 1
COSX IntAccX                   ... 3.067
COSX Algorithm                 ... Auto
Number of perturbations        ... 3
Number of operators            ... 2
Orbital ranges used for CP-SCF:
 Operator 0:  Orbitals   0...  4  to   5... 72
 Operator 1:  Orbitals   0...  3  to   4... 72
Variables per perturbation     ... 616
DFT calculation                         ... on
XC functional terms                     ... off
Hybrid DFT                              ... on
   Exchange mixing (SCF)                ...  0.200
   Exchange mixing (CP-SCF)             ...  0.200
   GGA exch. scaling(SCF)               ...  0.720
   GGA exch. scaling (CP-SCF)           ...  0.720
   GGA corr. scaling (SCF)              ...  0.810
   GGA corr. scaling (CP-SCF)           ...  0.810

CP-SCF GRID
-----------

General Integration Accuracy     IntAcc      ... 3.467
Radial Grid Type                 RadialGrid  ... OptM3 with GC (2021)
Angular Grid (max. ang.)         AngularGrid ... 1 (Lebedev-50)
Angular grid pruning method      GridPruning ... 4 (adaptive)
Weight generation scheme         WeightScheme... Becke
Basis function cutoff            BFCut       ... 1.0000e-10
Integration weight cutoff        WCut        ... 1.0000e-14
Angular grids for H and He will be reduced by one unit
Partially contracted basis set               ... off
Rotationally invariant grid construction     ... off

Total number of grid points                  ...     2325
Total number of batches                      ...       38
Average number of points per batch           ...       61
Average number of grid points per atom       ...      581

CP-SCF GRIDX
------------

General Integration Accuracy     IntAcc      ... 3.067
Radial Grid Type                 RadialGrid  ... OptM3 with GC (2021)
Angular Grid (max. ang.)         AngularGrid ... 1 (Lebedev-50)
Angular grid pruning method      GridPruning ... 4 (adaptive)
Weight generation scheme         WeightScheme... Becke
Basis function cutoff            BFCut       ... 1.0000e-10
Integration weight cutoff        WCut        ... 1.0000e-14
Angular grids for H and He will be reduced by one unit
Partially contracted basis set               ... on
Rotationally invariant grid construction     ... off

Total number of grid points                  ...     1070
Total number of batches                      ...       20
Average number of points per batch           ...       53
Average number of grid points per atom       ...      268

Memory available               ... 967.8 MB
Memory needed per perturbation ...   0.4 MB
Perturbations treated per batch... 3
Number of batches              ... 1
     CP-SCF ITERATION   0:   6.2169e-02 (   0.1 sec   0/  3 done)
     CP-SCF ITERATION   1:   2.8135e-03 (   0.1 sec   0/  3 done)
     CP-SCF ITERATION   2:   2.1108e-04 (   0.1 sec   3/  3 done)
                    *** THE CP-SCF HAS CONVERGED ***

Forming final perturbed densities           ... done
Transforming perturbed density to AO basis  ... done

 Raw HFC matrix (all values in MHz): 
 -----------------------------------
              -105.1301               9.0847              -3.1510
                 9.0856             -44.1538              19.2328
                -3.1502              19.2327             -48.0869

 A(FC)         -65.8040             -65.8040             -65.8040
 A(SD)          39.2856               2.0441             -41.3296
 A(ORB+DIA)      0.0105              -0.0006               0.0313    A(PC) =   0.0137
 A(ORB)          0.0053               0.0006               0.0298    A(PC) =   0.0119
 A(DIA)          0.0052              -0.0012               0.0015    A(PC) =   0.0018
             ----------           ----------           ----------
 A(Tot)        -26.5080             -63.7605            -107.1023    A(iso)=  -65.7903
 Orientation: 
  X           0.0601848            0.1968912           -0.9785763
  Y           0.7495173            0.6385511            0.1745747
  Z           0.6592432           -0.7439666           -0.1091423

Notes:  (1) The A matrix conforms to the "SAI" spin Hamiltonian convention.
        (2) Tensor is right-handed.

 -----------------------------------------------------------
 Nucleus   3H : A:ISTP=    1 I=  0.5 P=533.5514 MHz/au**3
                Q:ISTP=    2 I=  1.0 Q=  0.0029 barn     
 -----------------------------------------------------------
 Solving for nuclear perturbation:
Forming RHS of the CP-SCF equations         ... 
Calc. nucleus orbit integrals (SHARK)       ... done

------------------------------------------------------------------------------
                           ORCA CP-SCF CALCULATION
------------------------------------------------------------------------------

Input orbitals are from        ... /home/rwth0701/scratch/cs681498/orcajob__30556240-pEwT/6209.gbw
Input Perturbation             ... /home/rwth0701/scratch/cs681498/orcajob__30556240-pEwT/6209.pin.tmp
Wavefunction output            ... /home/rwth0701/scratch/cs681498/orcajob__30556240-pEwT/6209.pout.tmp
Perturbation mode              ... Imaginary perturbation
Solver                         ... POPLE
Max. number of iterations      ... 64
Convergence tolerance          ... 1.000e-03
Integral handling              ... Direct
DFT GridXC                     ... 1
COSX GridX                     ... 1
COSX IntAccX                   ... 3.067
COSX Algorithm                 ... Auto
Number of perturbations        ... 3
Number of operators            ... 2
Orbital ranges used for CP-SCF:
 Operator 0:  Orbitals   0...  4  to   5... 72
 Operator 1:  Orbitals   0...  3  to   4... 72
Variables per perturbation     ... 616
DFT calculation                         ... on
XC functional terms                     ... off
Hybrid DFT                              ... on
   Exchange mixing (SCF)                ...  0.200
   Exchange mixing (CP-SCF)             ...  0.200
   GGA exch. scaling(SCF)               ...  0.720
   GGA exch. scaling (CP-SCF)           ...  0.720
   GGA corr. scaling (SCF)              ...  0.810
   GGA corr. scaling (CP-SCF)           ...  0.810

CP-SCF GRID
-----------

General Integration Accuracy     IntAcc      ... 3.467
Radial Grid Type                 RadialGrid  ... OptM3 with GC (2021)
Angular Grid (max. ang.)         AngularGrid ... 1 (Lebedev-50)
Angular grid pruning method      GridPruning ... 4 (adaptive)
Weight generation scheme         WeightScheme... Becke
Basis function cutoff            BFCut       ... 1.0000e-10
Integration weight cutoff        WCut        ... 1.0000e-14
Angular grids for H and He will be reduced by one unit
Partially contracted basis set               ... off
Rotationally invariant grid construction     ... off

Total number of grid points                  ...     2325
Total number of batches                      ...       38
Average number of points per batch           ...       61
Average number of grid points per atom       ...      581

CP-SCF GRIDX
------------

General Integration Accuracy     IntAcc      ... 3.067
Radial Grid Type                 RadialGrid  ... OptM3 with GC (2021)
Angular Grid (max. ang.)         AngularGrid ... 1 (Lebedev-50)
Angular grid pruning method      GridPruning ... 4 (adaptive)
Weight generation scheme         WeightScheme... Becke
Basis function cutoff            BFCut       ... 1.0000e-10
Integration weight cutoff        WCut        ... 1.0000e-14
Angular grids for H and He will be reduced by one unit
Partially contracted basis set               ... on
Rotationally invariant grid construction     ... off

Total number of grid points                  ...     1070
Total number of batches                      ...       20
Average number of points per batch           ...       53
Average number of grid points per atom       ...      268

Memory available               ... 967.7 MB
Memory needed per perturbation ...   0.4 MB
Perturbations treated per batch... 3
Number of batches              ... 1
     CP-SCF ITERATION   0:   6.5925e-02 (   0.1 sec   0/  3 done)
     CP-SCF ITERATION   1:   2.6270e-03 (   0.1 sec   0/  3 done)
     CP-SCF ITERATION   2:   2.1779e-04 (   0.1 sec   3/  3 done)
                    *** THE CP-SCF HAS CONVERGED ***

Forming final perturbed densities           ... done
Transforming perturbed density to AO basis  ... done

 Raw HFC matrix (all values in MHz): 
 -----------------------------------
               -48.6587              25.9236              23.5502
                25.9229             -81.2267              -8.0694
                23.5495              -8.0693             -64.8294

 A(FC)         -64.9188             -64.9188             -64.9188
 A(SD)          38.8254               1.2549             -40.0803
 A(ORB+DIA)      0.0112              -0.0006               0.0311    A(PC) =   0.0139
 A(ORB)          0.0063               0.0006               0.0296    A(PC) =   0.0121
 A(DIA)          0.0050              -0.0012               0.0014    A(PC) =   0.0018
             ----------           ----------           ----------
 A(Tot)        -26.0821             -63.6645            -104.9680    A(iso)=  -64.9049
 Orientation: 
  X          -0.8359086           -0.1696132           -0.5220041
  Y          -0.3286317           -0.6070735            0.7235074
  Z          -0.4396113            0.7763331            0.4517177

Notes:  (1) The A matrix conforms to the "SAI" spin Hamiltonian convention.
        (2) Tensor is right-handed.

 -----------------------------------------------------------
 Nucleus   0C : A:ISTP=   13 I=  0.5 P=134.1903 MHz/au**3
                Q:ISTP=   13 I=  0.5 Q=  0.0000 barn     
 -----------------------------------------------------------
 Solving for nuclear perturbation:
Forming RHS of the CP-SCF equations         ... 
Calc. nucleus orbit integrals (SHARK)       ... done

------------------------------------------------------------------------------
                           ORCA CP-SCF CALCULATION
------------------------------------------------------------------------------

Input orbitals are from        ... /home/rwth0701/scratch/cs681498/orcajob__30556240-pEwT/6209.gbw
Input Perturbation             ... /home/rwth0701/scratch/cs681498/orcajob__30556240-pEwT/6209.pin.tmp
Wavefunction output            ... /home/rwth0701/scratch/cs681498/orcajob__30556240-pEwT/6209.pout.tmp
Perturbation mode              ... Imaginary perturbation
Solver                         ... POPLE
Max. number of iterations      ... 64
Convergence tolerance          ... 1.000e-03
Integral handling              ... Direct
DFT GridXC                     ... 1
COSX GridX                     ... 1
COSX IntAccX                   ... 3.067
COSX Algorithm                 ... Auto
Number of perturbations        ... 3
Number of operators            ... 2
Orbital ranges used for CP-SCF:
 Operator 0:  Orbitals   0...  4  to   5... 72
 Operator 1:  Orbitals   0...  3  to   4... 72
Variables per perturbation     ... 616
DFT calculation                         ... on
XC functional terms                     ... off
Hybrid DFT                              ... on
   Exchange mixing (SCF)                ...  0.200
   Exchange mixing (CP-SCF)             ...  0.200
   GGA exch. scaling(SCF)               ...  0.720
   GGA exch. scaling (CP-SCF)           ...  0.720
   GGA corr. scaling (SCF)              ...  0.810
   GGA corr. scaling (CP-SCF)           ...  0.810

CP-SCF GRID
-----------

General Integration Accuracy     IntAcc      ... 3.467
Radial Grid Type                 RadialGrid  ... OptM3 with GC (2021)
Angular Grid (max. ang.)         AngularGrid ... 1 (Lebedev-50)
Angular grid pruning method      GridPruning ... 4 (adaptive)
Weight generation scheme         WeightScheme... Becke
Basis function cutoff            BFCut       ... 1.0000e-10
Integration weight cutoff        WCut        ... 1.0000e-14
Angular grids for H and He will be reduced by one unit
Partially contracted basis set               ... off
Rotationally invariant grid construction     ... off

Total number of grid points                  ...     2325
Total number of batches                      ...       38
Average number of points per batch           ...       61
Average number of grid points per atom       ...      581

CP-SCF GRIDX
------------

General Integration Accuracy     IntAcc      ... 3.067
Radial Grid Type                 RadialGrid  ... OptM3 with GC (2021)
Angular Grid (max. ang.)         AngularGrid ... 1 (Lebedev-50)
Angular grid pruning method      GridPruning ... 4 (adaptive)
Weight generation scheme         WeightScheme... Becke
Basis function cutoff            BFCut       ... 1.0000e-10
Integration weight cutoff        WCut        ... 1.0000e-14
Angular grids for H and He will be reduced by one unit
Partially contracted basis set               ... on
Rotationally invariant grid construction     ... off

Total number of grid points                  ...     1070
Total number of batches                      ...       20
Average number of points per batch           ...       53
Average number of grid points per atom       ...      268

Memory available               ... 967.6 MB
Memory needed per perturbation ...   0.4 MB
Perturbations treated per batch... 3
Number of batches              ... 1
     CP-SCF ITERATION   0:   1.0453e+00 (   0.1 sec   0/  3 done)
     CP-SCF ITERATION   1:   4.0348e-02 (   0.1 sec   0/  3 done)
     CP-SCF ITERATION   2:   2.9586e-03 (   0.1 sec   0/  3 done)
     CP-SCF ITERATION   3:   1.7223e-04 (   0.1 sec   3/  3 done)
                    *** THE CP-SCF HAS CONVERGED ***

Forming final perturbed densities           ... done
Transforming perturbed density to AO basis  ... done

 Raw HFC matrix (all values in MHz): 
 -----------------------------------
                16.7167              28.7239             -36.2938
                28.7239              98.6020            -113.9160
               -36.2938            -113.9160             147.5823

 A(FC)          87.7527              87.7527              87.7527
 A(SD)         -81.1896             -79.9098             161.0994
 A(ORB+DIA)     -0.1776              -0.1667              -0.0129    A(PC) =  -0.1191
 A(ORB)         -0.1780              -0.1671              -0.0129    A(PC) =  -0.1193
 A(DIA)          0.0004               0.0004              -0.0001    A(PC) =   0.0002
             ----------           ----------           ----------
 A(Tot)          6.3855               7.6762             248.8391    A(iso)=   87.6336
 Orientation: 
  X           0.3741707            0.9065098            0.1955409
  Y           0.6723931           -0.4104114            0.6159951
  Z           0.6386578           -0.0990070           -0.7630949

Notes:  (1) The A matrix conforms to the "SAI" spin Hamiltonian convention.
        (2) Tensor is right-handed.


--------------------------------------------------------------------------------
----------------------------------------------------------------------------
                           ORCA EULER ANGLE PROGRAM
----------------------------------------------------------------------------

Only g-tensor available        -->  using g-tensor as reference tensor

Reference tensor               ...  g

g-tensor ordering              ...  |g_min> --> |gx>
                                    |g_mid> --> |gy>
                                    |g_max> --> |gz>

A- and EFG-tensor ordering     ...  the axes |Ax>, |Qx>, |Ay>, etc. are assigned
                                    such that the Euler rotation is minimal. You
                                    can find the respective eigenvalues as Ax,
                                    EFGx, Ay, etc. in the tables below.
                                    The relation of |Ax>, |Ay>,  etc. to Amin, Amid, etc.
                                    (as printed in the ORCA EPR/NMR CALCULATION Output)
                                    is obtained in the detailed printout.

Euler rotation around          ...  z - y - z
   First rotation              -->  by alpha around z
   Second rotation             -->  by beta around y'
   Third rotation              -->  by gamma around z''
   Positive / Negative angle   -->  clockwise / counterclockwise rotation

Plot EFG-tensors                    (-)
Plot HFC-tensors                    (-)
Detailed Printout                   (-)

-------------------------------------------------------------------------
          Euler rotation of hyperfine tensor to g-tensor
-------------------------------------------------------------------------

-------------------------------------------------------------------
 Atom  |   Alpha    Beta    Gamma   |   Ax       Ay       Az 
       |          [degrees]         |           [MHz]         
-------------------------------------------------------------------
  1H       92.7     26.0    -93.7     -68.79  -101.48   -30.40
  2H      -86.8     33.5     85.9     -63.76  -107.10   -26.51
  3H       83.5      2.6    -82.3     -63.66   -26.08  -104.97
  0C       89.5     38.0    -90.1     248.84     6.39     7.68
-------------------------------------------------------------------


Maximum memory used throughout the entire EPRNMR-calculation: 67.6 MB

Timings for individual modules:

Sum of individual times         ...       21.955 sec (=   0.366 min)
GTO integral calculation        ...        3.510 sec (=   0.058 min)  16.0 %
Spin-Orbit-Coupling Matrices    ...        2.753 sec (=   0.046 min)  12.5 %
SCF iterations                  ...        9.063 sec (=   0.151 min)  41.3 %
EPR/NMR calculation             ...        6.630 sec (=   0.110 min)  30.2 %
                             ****ORCA TERMINATED NORMALLY****
TOTAL RUN TIME: 0 days 0 hours 0 minutes 24 seconds 57 msec
