Job execution start: Mon Oct 24 21:41:08 CEST 2022
Shared library path: /home/cs681498/orca:/opt/MPI/openmpi-4.1.1/linux/gcc_4.8.5/lib:/opt/MPI/openmpi-4.1.1/linux/gcc_4.8.5/lib/lib32
Slurm Job ID is: 30556258
Slurm Job name is: 6837
nrm105

                                 *****************
                                 * O   R   C   A *
                                 *****************

                                            #,                                       
                                            ###                                      
                                            ####                                     
                                            #####                                    
                                            ######                                   
                                           ########,                                 
                                     ,,################,,,,,                         
                               ,,#################################,,                 
                          ,,##########################################,,             
                       ,#########################################, ''#####,          
                    ,#############################################,,   '####,        
                  ,##################################################,,,,####,       
                ,###########''''           ''''###############################       
              ,#####''   ,,,,##########,,,,          '''####'''          '####       
            ,##' ,,,,###########################,,,                        '##       
           ' ,,###''''                  '''############,,,                           
         ,,##''                                '''############,,,,        ,,,,,,###''
      ,#''                                            '''#######################'''  
     '                                                          ''''####''''         
             ,#######,   #######,   ,#######,      ##                                
            ,#'     '#,  ##    ##  ,#'     '#,    #''#        ######   ,####,        
            ##       ##  ##   ,#'  ##            #'  '#       #        #'  '#        
            ##       ##  #######   ##           ,######,      #####,   #    #        
            '#,     ,#'  ##    ##  '#,     ,#' ,#      #,         ##   #,  ,#        
             '#######'   ##     ##  '#######'  #'      '#     #####' # '####'        



                  #######################################################
                  #                        -***-                        #
                  #          Department of theory and spectroscopy      #
                  #    Directorship and core code : Frank Neese         #
                  #        Max Planck Institute fuer Kohlenforschung    #
                  #                Kaiser Wilhelm Platz 1               #
                  #                 D-45470 Muelheim/Ruhr               #
                  #                      Germany                        #
                  #                                                     #
                  #                  All rights reserved                #
                  #                        -***-                        #
                  #######################################################


                         Program Version 5.0.3 -  RELEASE  -


 With contributions from (in alphabetic order):
   Daniel Aravena         : Magnetic Suceptibility
   Michael Atanasov       : Ab Initio Ligand Field Theory (pilot matlab implementation)
   Alexander A. Auer      : GIAO ZORA, VPT2 properties, NMR spectrum
   Ute Becker             : Parallelization
   Giovanni Bistoni       : ED, misc. LED, open-shell LED, HFLD
   Martin Brehm           : Molecular dynamics
   Dmytro Bykov           : SCF Hessian
   Vijay G. Chilkuri      : MRCI spin determinant printing, contributions to CSF-ICE
   Dipayan Datta          : RHF DLPNO-CCSD density
   Achintya Kumar Dutta   : EOM-CC, STEOM-CC
   Dmitry Ganyushin       : Spin-Orbit,Spin-Spin,Magnetic field MRCI
   Miquel Garcia          : C-PCM and meta-GGA Hessian, CC/C-PCM, Gaussian charge scheme
   Yang Guo               : DLPNO-NEVPT2, F12-NEVPT2, CIM, IAO-localization
   Andreas Hansen         : Spin unrestricted coupled pair/coupled cluster methods
   Benjamin Helmich-Paris : MC-RPA, TRAH-SCF, COSX integrals
   Lee Huntington         : MR-EOM, pCC
   Robert Izsak           : Overlap fitted RIJCOSX, COSX-SCS-MP3, EOM
   Marcus Kettner         : VPT2
   Christian Kollmar      : KDIIS, OOCD, Brueckner-CCSD(T), CCSD density, CASPT2, CASPT2-K
   Simone Kossmann        : Meta GGA functionals, TD-DFT gradient, OOMP2, MP2 Hessian
   Martin Krupicka        : Initial AUTO-CI
   Lucas Lang             : DCDCAS
   Marvin Lechner         : AUTO-CI (C++ implementation), FIC-MRCC
   Dagmar Lenk            : GEPOL surface, SMD
   Dimitrios Liakos       : Extrapolation schemes; Compound Job, initial MDCI parallelization
   Dimitrios Manganas     : Further ROCIS development; embedding schemes
   Dimitrios Pantazis     : SARC Basis sets
   Anastasios Papadopoulos: AUTO-CI, single reference methods and gradients
   Taras Petrenko         : DFT Hessian,TD-DFT gradient, ASA, ECA, R-Raman, ABS, FL, XAS/XES, NRVS
   Peter Pinski           : DLPNO-MP2, DLPNO-MP2 Gradient
   Christoph Reimann      : Effective Core Potentials
   Marius Retegan         : Local ZFS, SOC
   Christoph Riplinger    : Optimizer, TS searches, QM/MM, DLPNO-CCSD(T), (RO)-DLPNO pert. Triples
   Tobias Risthaus        : Range-separated hybrids, TD-DFT gradient, RPA, STAB
   Michael Roemelt        : Original ROCIS implementation
   Masaaki Saitow         : Open-shell DLPNO-CCSD energy and density
   Barbara Sandhoefer     : DKH picture change effects
   Avijit Sen             : IP-ROCIS
   Kantharuban Sivalingam : CASSCF convergence, NEVPT2, FIC-MRCI
   Bernardo de Souza      : ESD, SOC TD-DFT
   Georgi Stoychev        : AutoAux, RI-MP2 NMR, DLPNO-MP2 response
   Willem Van den Heuvel  : Paramagnetic NMR
   Boris Wezisla          : Elementary symmetry handling
   Frank Wennmohs         : Technical directorship


 We gratefully acknowledge several colleagues who have allowed us to
 interface, adapt or use parts of their codes:
   Stefan Grimme, W. Hujo, H. Kruse, P. Pracht,  : VdW corrections, initial TS optimization,
                  C. Bannwarth, S. Ehlert          DFT functionals, gCP, sTDA/sTD-DF
   Ed Valeev, F. Pavosevic, A. Kumar             : LibInt (2-el integral package), F12 methods
   Garnet Chan, S. Sharma, J. Yang, R. Olivares  : DMRG
   Ulf Ekstrom                                   : XCFun DFT Library
   Mihaly Kallay                                 : mrcc  (arbitrary order and MRCC methods)
   Jiri Pittner, Ondrej Demel                    : Mk-CCSD
   Frank Weinhold                                : gennbo (NPA and NBO analysis)
   Christopher J. Cramer and Donald G. Truhlar   : smd solvation model
   Lars Goerigk                                  : TD-DFT with DH, B97 family of functionals
   V. Asgeirsson, H. Jonsson                     : NEB implementation
   FAccTs GmbH                                   : IRC, NEB, NEB-TS, DLPNO-Multilevel, CI-OPT
                                                   MM, QMMM, 2- and 3-layer-ONIOM, Crystal-QMMM,
                                                   LR-CPCM, SF, NACMEs, symmetry and pop. for TD-DFT,
                                                   nearIR, NL-DFT gradient (VV10), updates on ESD,
                                                   ML-optimized integration grids
   S Lehtola, MJT Oliveira, MAL Marques          : LibXC Library
   Liviu Ungur et al                             : ANISO software


 Your calculation uses the libint2 library for the computation of 2-el integrals
 For citations please refer to: http://libint.valeyev.net

 Your ORCA version has been built with support for libXC version: 5.1.0
 For citations please refer to: https://tddft.org/programs/libxc/

 This ORCA versions uses:
   CBLAS   interface :  Fast vector & matrix operations
   LAPACKE interface :  Fast linear algebra routines
   SCALAPACK package :  Parallel linear algebra routines
   Shared memory     :  Shared parallel matrices
   BLAS/LAPACK       :  OpenBLAS 0.3.15  USE64BITINT DYNAMIC_ARCH NO_AFFINITY SkylakeX SINGLE_THREADED
        Core in use  :  SkylakeX
   Copyright (c) 2011-2014, The OpenBLAS Project


================================================================================

----- Orbital basis set information -----
Your calculation utilizes the basis: EPR-III
   V. Barone, in Recent Advances in Density Functional Methods, Part 1 (ed. D. P. Chong), World Scientific, Singapore, 1995, p. 287.
   N. Rega, M. Cossi and V. Barone, J. Chem. Phys. 105, 11060 (1996).

----- AuxJ basis set information -----
Your calculation utilizes the AutoAux generation procedure.
  G. L. Stoychev, A. A. Auer, F. Neese, J. Chem. Theory Comput. 13, 554 (2017)

----- AuxC basis set information -----
Your calculation utilizes the AutoAux generation procedure.
  G. L. Stoychev, A. A. Auer, F. Neese, J. Chem. Theory Comput. 13, 554 (2017)

----- AuxJK basis set information -----
Your calculation utilizes the AutoAux generation procedure.
  G. L. Stoychev, A. A. Auer, F. Neese, J. Chem. Theory Comput. 13, 554 (2017)

================================================================================
                                        WARNINGS
                       Please study these warnings very carefully!
================================================================================


WARNING: your system is open-shell and RHF/RKS was chosen
  ===> : WILL SWITCH to UHF/UKS


INFO   : the flag for use of the SHARK integral package has been found!

================================================================================
                                       INPUT FILE
================================================================================
NAME = /home/rwth0701/scratch/cs681498/orcajob__30556258-3wlJ/6837.inp
|  1> !B3LYP EPR-III Autoaux
|  2> !PAL4
|  3> 
|  4> * xyz 0 2
|  5>  C    -18.2672673369    -35.5627670712    -15.1086847002
|  6>  H    -17.6808074204    -34.7561790069    -15.3781397215
|  7>  H    -19.2877872871    -35.6013555680    -14.5716652287
|  8>  H    -17.7816455987    -36.5438910965    -15.4405645770
|  9> *
| 10> 
| 11> %EPRNMR
| 12>         GTENSOR   TRUE
| 13>         NUCLEI    = ALL H {AISO, ADIP, AORB}
| 14>         NUCLEI    = ALL C {AISO, ADIP, AORB}
| 15> END
| 16> 
| 17> 
| 18>                          ****END OF INPUT****
================================================================================

                       ****************************
                       * Single Point Calculation *
                       ****************************

---------------------------------
CARTESIAN COORDINATES (ANGSTROEM)
---------------------------------
  C    -18.267267  -35.562767  -15.108685
  H    -17.680807  -34.756179  -15.378140
  H    -19.287787  -35.601356  -14.571665
  H    -17.781646  -36.543891  -15.440565

----------------------------
CARTESIAN COORDINATES (A.U.)
----------------------------
  NO LB      ZA    FRAG     MASS         X           Y           Z
   0 C     6.0000    0    12.011  -34.520132  -67.203890  -28.551276
   1 H     1.0000    0     1.008  -33.411884  -65.679660  -29.060473
   2 H     1.0000    0     1.008  -36.448636  -67.276812  -27.536457
   3 H     1.0000    0     1.008  -33.602440  -69.057946  -29.178438

--------------------------------
INTERNAL COORDINATES (ANGSTROEM)
--------------------------------
 C      0   0   0     0.000000000000     0.00000000     0.00000000
 H      1   0   0     1.033017689895     0.00000000     0.00000000
 H      1   2   0     1.153837056786   130.51406000     0.00000000
 H      1   2   3     1.143930539088   110.67082928   178.74916696

---------------------------
INTERNAL COORDINATES (A.U.)
---------------------------
 C      0   0   0     0.000000000000     0.00000000     0.00000000
 H      1   0   0     1.952120525398     0.00000000     0.00000000
 H      1   2   0     2.180436040495   130.51406000     0.00000000
 H      1   2   3     2.161715435105   110.67082928   178.74916696

---------------------
BASIS SET INFORMATION
---------------------
There are 2 groups of distinct atoms

 Group   1 Type C   : 12s8p2d1f contracted to 8s5p2d1f pattern {51111111/41111/11/1}
 Group   2 Type H   : 7s2p contracted to 5s2p pattern {31111/11}

Atom   0C    basis set group =>   1
Atom   1H    basis set group =>   2
Atom   2H    basis set group =>   2
Atom   3H    basis set group =>   2
---------------------------------
AUXILIARY/J BASIS SET INFORMATION
---------------------------------
There are 2 groups of distinct atoms

 Group   1 Type C   : 20s17p16d8f3g contracted to 20s17p16d8f3g pattern {11111111111111111111/11111111111111111/1111111111111111/11111111/111}
 Group   2 Type H   : 17s7p3d contracted to 17s7p3d pattern {11111111111111111/1111111/111}

Atom   0C    basis set group =>   1
Atom   1H    basis set group =>   2
Atom   2H    basis set group =>   2
Atom   3H    basis set group =>   2
---------------------------------
AUXILIARY/C BASIS SET INFORMATION
---------------------------------
There are 2 groups of distinct atoms

 Group   1 Type C   : 20s17p16d8f3g contracted to 20s17p16d8f3g pattern {11111111111111111111/11111111111111111/1111111111111111/11111111/111}
 Group   2 Type H   : 17s7p3d contracted to 17s7p3d pattern {11111111111111111/1111111/111}

Atom   0C    basis set group =>   1
Atom   1H    basis set group =>   2
Atom   2H    basis set group =>   2
Atom   3H    basis set group =>   2
----------------------------------
AUXILIARY/JK BASIS SET INFORMATION
----------------------------------
There are 2 groups of distinct atoms

 Group   1 Type C   : 20s17p16d8f3g contracted to 20s17p16d8f3g pattern {11111111111111111111/11111111111111111/1111111111111111/11111111/111}
 Group   2 Type H   : 17s7p3d contracted to 17s7p3d pattern {11111111111111111/1111111/111}

Atom   0C    basis set group =>   1
Atom   1H    basis set group =>   2
Atom   2H    basis set group =>   2
Atom   3H    basis set group =>   2


           ************************************************************
           *        Program running with 4 parallel MPI-processes     *
           *              working on a common directory               *
           ************************************************************
------------------------------------------------------------------------------
                           ORCA GTO INTEGRAL CALCULATION
                           -- RI-GTO INTEGRALS CHOSEN --
------------------------------------------------------------------------------
------------------------------------------------------------------------------
                   ___                                                        
                  /   \      - P O W E R E D   B Y -                         
                 /     \                                                     
                 |  |  |   _    _      __       _____    __    __             
                 |  |  |  | |  | |    /  \     |  _  \  |  |  /  |          
                  \  \/   | |  | |   /    \    | | | |  |  | /  /          
                 / \  \   | |__| |  /  /\  \   | |_| |  |  |/  /          
                |  |  |   |  __  | /  /__\  \  |    /   |      \           
                |  |  |   | |  | | |   __   |  |    \   |  |\   \          
                \     /   | |  | | |  |  |  |  | |\  \  |  | \   \       
                 \___/    |_|  |_| |__|  |__|  |_| \__\ |__|  \__/        
                                                                              
                      - O R C A' S   B I G   F R I E N D -                    
                                      &                                       
                       - I N T E G R A L  F E E D E R -                       
                                                                              
 v1 FN, 2020, v2 2021                                                         
------------------------------------------------------------------------------


Reading SHARK input file /home/rwth0701/scratch/cs681498/orcajob__30556258-3wlJ/6837.SHARKINP.tmp ... ok
----------------------
SHARK INTEGRAL PACKAGE
----------------------

Number of atoms                             ...      4
Number of basis functions                   ...     73
Number of shells                            ...     37
Maximum angular momentum                    ...      3
Integral batch strategy                     ... SHARK/LIBINT Hybrid
RI-J (if used) integral strategy            ... SPLIT-RIJ (Revised 2003 algorithm where possible)
Printlevel                                  ...      1
Contraction scheme used                     ... SEGMENTED contraction
Coulomb Range Separation                    ... NOT USED
Exchange Range Separation                   ... NOT USED
Finite Nucleus Model                        ... NOT USED
Auxiliary Coulomb fitting basis             ... AVAILABLE
   # of basis functions in Aux-J            ...    393
   # of shells in Aux-J                     ...    145
   Maximum angular momentum in Aux-J        ...      4
Auxiliary J/K fitting basis                 ... AVAILABLE
   # of basis functions in Aux-JK           ...    393
   # of shells in Aux-JK                    ...    145
   Maximum angular momentum in Aux-JK       ...      4
Auxiliary Correlation fitting basis         ... AVAILABLE
   # of basis functions in Aux-C            ...    393
   # of shells in Aux-C                     ...    145
   Maximum angular momentum in Aux-C        ...      4
Auxiliary 'external' fitting basis          ... NOT available
Integral threshold                          ...     1.000000e-10
Primitive cut-off                           ...     1.000000e-11
Primitive pair pre-selection threshold      ...     1.000000e-11

Calculating pre-screening integrals         ... done (  0.0 sec) Dimension = 37
Organizing shell pair data                  ... done (  0.0 sec)
Shell pair information
Total number of shell pairs                 ...       703
Shell pairs after pre-screening             ...       688
Total number of primitive shell pairs       ...      1300
Primitive shell pairs kept                  ...      1183
          la=0 lb=0:    261 shell pairs
          la=1 lb=0:    253 shell pairs
          la=1 lb=1:     66 shell pairs
          la=2 lb=0:     46 shell pairs
          la=2 lb=1:     22 shell pairs
          la=2 lb=2:      3 shell pairs
          la=3 lb=0:     23 shell pairs
          la=3 lb=1:     11 shell pairs
          la=3 lb=2:      2 shell pairs
          la=3 lb=3:      1 shell pairs

Calculating one electron integrals          ... done (  0.0 sec)
Calculating RI/J V-Matrix + Cholesky decomp.... done (  0.1 sec)
Calculating RI/JK V-Matrix + Cholesky decomp... done (  0.1 sec)
Calculating RI/C V-Matrix + Cholesky decomp.... done (  0.1 sec)
Calculating Nuclear repulsion               ... done (  0.0 sec) ENN=      9.430165736231 Eh

SHARK setup successfully completed in   0.4 seconds

Maximum memory used throughout the entire GTOINT-calculation: 13.7 MB


           ************************************************************
           *        Program running with 4 parallel MPI-processes     *
           *              working on a common directory               *
           ************************************************************
-------------------------------------------------------------------------------
                                 ORCA SCF
-------------------------------------------------------------------------------

------------
SCF SETTINGS
------------
Hamiltonian:
 Density Functional     Method          .... DFT(GTOs)
 Exchange Functional    Exchange        .... B88
   X-Alpha parameter    XAlpha          ....  0.666667
   Becke's b parameter  XBeta           ....  0.004200
 Correlation Functional Correlation     .... LYP
 LDA part of GGA corr.  LDAOpt          .... VWN-5
 Gradients option       PostSCFGGA      .... off
 Hybrid DFT is turned on
   Fraction HF Exchange ScalHFX         ....  0.200000
   Scaling of DF-GGA-X  ScalDFX         ....  0.720000
   Scaling of DF-GGA-C  ScalDFC         ....  0.810000
   Scaling of DF-LDA-C  ScalLDAC        ....  1.000000
   Perturbative correction              ....  0.000000
   Density functional embedding theory  .... OFF
   NL short-range parameter             ....  4.800000
 RI-approximation to the Coulomb term is turned on
   Number of AuxJ basis functions       .... 393
   RIJ-COSX (HFX calculated with COS-X)).... on


General Settings:
 Integral files         IntName         .... /home/rwth0701/scratch/cs681498/orcajob__30556258-3wlJ/6837
 Hartree-Fock type      HFTyp           .... UHF
 Total Charge           Charge          ....    0
 Multiplicity           Mult            ....    2
 Number of Electrons    NEL             ....    9
 Basis Dimension        Dim             ....   73
 Nuclear Repulsion      ENuc            ....      9.4301657362 Eh

Convergence Acceleration:
 DIIS                   CNVDIIS         .... on
   Start iteration      DIISMaxIt       ....    12
   Startup error        DIISStart       ....  0.200000
   # of expansion vecs  DIISMaxEq       ....     5
   Bias factor          DIISBfac        ....   1.050
   Max. coefficient     DIISMaxC        ....  10.000
 Trust-Rad. Augm. Hess. CNVTRAH         .... auto
   Auto Start mean grad. ratio tolernc. ....  1.125000
   Auto Start start iteration           ....    20
   Auto Start num. interpolation iter.  ....    10
   Max. Number of Micro iterations      ....    16
   Max. Number of Macro iterations      .... Maxiter - #DIIS iter
   Number of Davidson start vectors     ....     2
   Converg. threshold I  (grad. norm)   ....   5.000e-05
   Converg. threshold II (energy diff.) ....   1.000e-06
   Grad. Scal. Fac. for Micro threshold ....   0.100
   Minimum threshold for Micro iter.    ....   0.010
   NR start threshold (gradient norm)   ....   0.001
   Initial trust radius                 ....   0.400
   Minimum AH scaling param. (alpha)    ....   1.000
   Maximum AH scaling param. (alpha)    .... 1000.000
   Orbital update algorithm             .... Taylor
   White noise on init. David. guess    .... on
   Maximum white noise                  ....   0.010
   Quad. conv. algorithm                .... NR
 SOSCF                  CNVSOSCF        .... off
 Level Shifting         CNVShift        .... on
   Level shift para.    LevelShift      ....    0.2500
   Turn off err/grad.   ShiftErr        ....    0.0010
 Zerner damping         CNVZerner       .... off
 Static damping         CNVDamp         .... on
   Fraction old density DampFac         ....    0.7000
   Max. Damping (<1)    DampMax         ....    0.9800
   Min. Damping (>=0)   DampMin         ....    0.0000
   Turn off err/grad.   DampErr         ....    0.1000
 Fernandez-Rico         CNVRico         .... off

SCF Procedure:
 Maximum # iterations   MaxIter         ....   125
 SCF integral mode      SCFMode         .... Direct
   Integral package                     .... SHARK and LIBINT hybrid scheme
 Reset frequency        DirectResetFreq ....    20
 Integral Threshold     Thresh          ....  1.000e-10 Eh
 Primitive CutOff       TCut            ....  1.000e-11 Eh

Convergence Tolerance:
 Convergence Check Mode ConvCheckMode   .... Total+1el-Energy
 Convergence forced     ConvForced      .... 0
 Energy Change          TolE            ....  1.000e-06 Eh
 1-El. energy change                    ....  1.000e-03 Eh
 DIIS Error             TolErr          ....  1.000e-06


Diagonalization of the overlap matrix:
Smallest eigenvalue                        ... 1.671e-03
Time for diagonalization                   ...    0.001 sec
Threshold for overlap eigenvalues          ... 1.000e-08
Number of eigenvalues below threshold      ... 0
Time for construction of square roots      ...    0.009 sec
Total time needed                          ...    0.011 sec

Time for model grid setup =    0.041 sec

------------------------------
INITIAL GUESS: MODEL POTENTIAL
------------------------------
Loading Hartree-Fock densities                     ... done
Calculating cut-offs                               ... done
Initializing the effective Hamiltonian             ... done
Setting up the integral package (SHARK)            ... done
Starting the Coulomb interaction                   ... done (   0.0 sec)
Reading the grid                                   ... done
Mapping shells                                     ... done
Starting the XC term evaluation                    ... done (   0.0 sec)
  promolecular density results
     # of electrons  =      8.998740163
     EX              =     -5.957942959
     EC              =     -0.259307156
     EX+EC           =     -6.217250115
Transforming the Hamiltonian                       ... done (   0.0 sec)
Diagonalizing the Hamiltonian                      ... done (   0.0 sec)
Back transforming the eigenvectors                 ... done (   0.0 sec)
Now organizing SCF variables                       ... done
                      ------------------
                      INITIAL GUESS DONE (   0.1 sec)
                      ------------------
-------------------
DFT GRID GENERATION
-------------------

General Integration Accuracy     IntAcc      ... 4.388
Radial Grid Type                 RadialGrid  ... OptM3 with GC (2021)
Angular Grid (max. ang.)         AngularGrid ... 4 (Lebedev-302)
Angular grid pruning method      GridPruning ... 4 (adaptive)
Weight generation scheme         WeightScheme... Becke
Basis function cutoff            BFCut       ... 1.0000e-10
Integration weight cutoff        WCut        ... 1.0000e-14
Angular grids for H and He will be reduced by one unit
Partially contracted basis set               ... off
Rotationally invariant grid construction     ... off

Total number of grid points                  ...    17060
Total number of batches                      ...      268
Average number of points per batch           ...       63
Average number of grid points per atom       ...     4265
Time for grid setup =    0.136 sec

--------------------
COSX GRID GENERATION
--------------------

GRIDX 1
-------
General Integration Accuracy     IntAcc      ... 3.816
Radial Grid Type                 RadialGrid  ... OptM3 with GC (2021)
Angular Grid (max. ang.)         AngularGrid ... 1 (Lebedev-50)
Angular grid pruning method      GridPruning ... 4 (adaptive)
Weight generation scheme         WeightScheme... Becke
Basis function cutoff            BFCut       ... 1.0000e-10
Integration weight cutoff        WCut        ... 1.0000e-14
Angular grids for H and He will be reduced by one unit
Partially contracted basis set               ... on
Rotationally invariant grid construction     ... off

Total number of grid points                  ...     2148
Total number of batches                      ...       35
Average number of points per batch           ...       61
Average number of grid points per atom       ...      537
UseSFitting                                  ... on

GRIDX 2
-------
General Integration Accuracy     IntAcc      ... 4.020
Radial Grid Type                 RadialGrid  ... OptM3 with GC (2021)
Angular Grid (max. ang.)         AngularGrid ... 2 (Lebedev-110)
Angular grid pruning method      GridPruning ... 4 (adaptive)
Weight generation scheme         WeightScheme... Becke
Basis function cutoff            BFCut       ... 1.0000e-10
Integration weight cutoff        WCut        ... 1.0000e-14
Angular grids for H and He will be reduced by one unit
Partially contracted basis set               ... on
Rotationally invariant grid construction     ... off

Total number of grid points                  ...     5042
Total number of batches                      ...       81
Average number of points per batch           ...       62
Average number of grid points per atom       ...     1260
UseSFitting                                  ... on

GRIDX 3
-------
General Integration Accuracy     IntAcc      ... 4.338
Radial Grid Type                 RadialGrid  ... OptM3 with GC (2021)
Angular Grid (max. ang.)         AngularGrid ... 3 (Lebedev-194)
Angular grid pruning method      GridPruning ... 4 (adaptive)
Weight generation scheme         WeightScheme... Becke
Basis function cutoff            BFCut       ... 1.0000e-10
Integration weight cutoff        WCut        ... 1.0000e-14
Angular grids for H and He will be reduced by one unit
Partially contracted basis set               ... on
Rotationally invariant grid construction     ... off

Total number of grid points                  ...    11768
Total number of batches                      ...      186
Average number of points per batch           ...       63
Average number of grid points per atom       ...     2942
UseSFitting                                  ... on

Time for X-Grid setup             =    0.221 sec

--------------
SCF ITERATIONS
--------------
ITER       Energy         Delta-E        Max-DP      RMS-DP      [F,P]     Damp
               ***  Starting incremental Fock matrix formation  ***
  0    -39.7802001172   0.000000000000 0.01457782  0.00048153  0.0835024 0.7000
  1    -39.7975790543  -0.017378937035 0.00910933  0.00036014  0.0433679 0.7000
                               ***Turning on DIIS***
  2    -39.8051921985  -0.007613144262 0.01617622  0.00062702  0.0172116 0.0000
  3    -39.8155787488  -0.010386550310 0.00665576  0.00027336  0.0264058 0.0000
  4    -39.8188530624  -0.003274313556 0.00259215  0.00007641  0.0052002 0.0000
  5    -39.8189870841  -0.000134021669 0.00090639  0.00003309  0.0016755 0.0000
  6    -39.8190059518  -0.000018867728 0.00069724  0.00002653  0.0006776 0.0000
               *** Restarting incremental Fock matrix formation ***
                                   *** Resetting DIIS ***
  7    -39.8190121895  -0.000006237694 0.00011371  0.00000326  0.0000982 0.0000
                 **** Energy Check signals convergence ****

               *****************************************************
               *                     SUCCESS                       *
               *           SCF CONVERGED AFTER   8 CYCLES          *
               *****************************************************

Old exchange energy                            =     -1.234649776 Eh
New exchange energy                            =     -1.234649034 Eh
Exchange energy change after final integration =      0.000000742 Eh
Total energy after final integration           =    -39.819011557 Eh
Final COS-X integration done in                =     0.180 sec

----------------
TOTAL SCF ENERGY
----------------

Total Energy       :          -39.81901156 Eh           -1083.53039 eV

Components:
Nuclear Repulsion  :            9.43016574 Eh             256.60786 eV
Electronic Energy  :          -49.24917729 Eh           -1340.13825 eV
One Electron Energy:          -71.18628961 Eh           -1937.07742 eV
Two Electron Energy:           21.93711232 Eh             596.93917 eV
Max COSX asymmetry :            0.00000009 Eh               0.00000 eV

Virial components:
Potential Energy   :          -79.33716719 Eh           -2158.87407 eV
Kinetic Energy     :           39.51815564 Eh            1075.34368 eV
Virial Ratio       :            2.00761311


DFT components:
N(Alpha)           :        4.999999556855 electrons
N(Beta)            :        4.000000570343 electrons
N(Total)           :        9.000000127199 electrons
E(X)               :       -4.889449209678 Eh       
E(C)               :       -0.308243722769 Eh       
E(XC)              :       -5.197692932447 Eh       
DFET-embed. en.    :        0.000000000000 Eh       

---------------
SCF CONVERGENCE
---------------

  Last Energy change         ...   -1.0923e-07  Tolerance :   1.0000e-06
  Last MAX-Density change    ...    0.0000e+00  Tolerance :   1.0000e-05
  Last RMS-Density change    ...    0.0000e+00  Tolerance :   1.0000e-06
  Last DIIS Error            ...    5.1953e-05  Tolerance :   1.0000e-06

             **** THE GBW FILE WAS UPDATED (/home/rwth0701/scratch/cs681498/orcajob__30556258-3wlJ/6837.gbw) ****
             **** DENSITY /home/rwth0701/scratch/cs681498/orcajob__30556258-3wlJ/6837.scfp WAS UPDATED ****
             **** ENERGY FILE WAS UPDATED (/home/rwth0701/scratch/cs681498/orcajob__30556258-3wlJ/6837.en.tmp) ****
----------------------
UHF SPIN CONTAMINATION
----------------------

Warning: in a DFT calculation there is little theoretical justification to 
         calculate <S**2> as in Hartree-Fock theory. We will do it anyways
         but you should keep in mind that the values have only limited relevance

Expectation value of <S**2>     :     0.754024
Ideal value S*(S+1) for S=0.5   :     0.750000
Deviation                       :     0.004024

             **** THE GBW FILE WAS UPDATED (/home/rwth0701/scratch/cs681498/orcajob__30556258-3wlJ/6837.gbw) ****
             **** DENSITY /home/rwth0701/scratch/cs681498/orcajob__30556258-3wlJ/6837.scfp WAS UPDATED ****
----------------
ORBITAL ENERGIES
----------------
                 SPIN UP ORBITALS
  NO   OCC          E(Eh)            E(eV) 
   0   1.0000     -10.192964      -277.3646 
   1   1.0000      -0.681995       -18.5580 
   2   1.0000      -0.433407       -11.7936 
   3   1.0000      -0.398116       -10.8333 
   4   1.0000      -0.235149        -6.3987 
   5   0.0000      -0.000486        -0.0132 
   6   0.0000       0.034582         0.9410 
   7   0.0000       0.038370         1.0441 
   8   0.0000       0.047300         1.2871 
   9   0.0000       0.078470         2.1353 
  10   0.0000       0.085282         2.3206 
  11   0.0000       0.100902         2.7457 
  12   0.0000       0.216686         5.8963 
  13   0.0000       0.226747         6.1701 
  14   0.0000       0.245554         6.6819 
  15   0.0000       0.275541         7.4979 
  16   0.0000       0.285459         7.7677 
  17   0.0000       0.302848         8.2409 
  18   0.0000       0.347082         9.4446 
  19   0.0000       0.543260        14.7829 
  20   0.0000       0.566230        15.4079 
  21   0.0000       0.729423        19.8486 
  22   0.0000       0.746037        20.3007 
  23   0.0000       0.776612        21.1327 
  24   0.0000       0.812364        22.1055 
  25   0.0000       0.858401        23.3583 
  26   0.0000       0.912233        24.8231 
  27   0.0000       0.937237        25.5035 
  28   0.0000       0.943180        25.6652 
  29   0.0000       1.040524        28.3141 
  30   0.0000       1.065689        28.9989 
  31   0.0000       1.128810        30.7165 
  32   0.0000       1.155014        31.4295 
  33   0.0000       1.165323        31.7100 
  34   0.0000       1.422867        38.7182 
  35   0.0000       1.458811        39.6963 
  36   0.0000       1.478789        40.2399 
  37   0.0000       1.677294        45.6415 
  38   0.0000       1.739014        47.3210 
  39   0.0000       1.771438        48.2033 
  40   0.0000       2.718509        73.9744 
  41   0.0000       2.746291        74.7304 
  42   0.0000       2.873970        78.2047 
  43   0.0000       2.889503        78.6274 
  44   0.0000       2.907141        79.1073 
  45   0.0000       2.970611        80.8344 
  46   0.0000       3.011478        81.9465 
  47   0.0000       3.137180        85.3670 
  48   0.0000       3.167391        86.1891 
  49   0.0000       3.255176        88.5778 
  50   0.0000       3.269885        88.9781 
  51   0.0000       3.608215        98.1845 
  52   0.0000       3.720824       101.2488 
  53   0.0000       3.777441       102.7894 
  54   0.0000       3.862984       105.1171 
  55   0.0000       3.893432       105.9457 
  56   0.0000       3.987672       108.5101 
  57   0.0000       4.079115       110.9984 
  58   0.0000       4.171780       113.5199 
  59   0.0000       4.172860       113.5493 
  60   0.0000       4.513354       122.8146 
  61   0.0000       5.028950       136.8447 
  62   0.0000       5.177984       140.9001 
  63   0.0000       5.426786       147.6704 
  64   0.0000       5.570655       151.5852 
  65   0.0000       5.979360       162.7066 
  66   0.0000       6.094745       165.8465 
  67   0.0000       7.664191       208.5532 
  68   0.0000      29.024286       789.7910 
  69   0.0000      37.041924      1007.9620 
  70   0.0000      37.179813      1011.7141 
  71   0.0000      37.246912      1013.5400 
  72   0.0000     133.473190      3631.9902 

                 SPIN DOWN ORBITALS
  NO   OCC          E(Eh)            E(eV) 
   0   1.0000     -10.178332      -276.9665 
   1   1.0000      -0.642319       -17.4784 
   2   1.0000      -0.424110       -11.5406 
   3   1.0000      -0.388910       -10.5828 
   4   0.0000      -0.077188        -2.1004 
   5   0.0000       0.003024         0.0823 
   6   0.0000       0.034368         0.9352 
   7   0.0000       0.038031         1.0349 
   8   0.0000       0.060624         1.6497 
   9   0.0000       0.081421         2.2156 
  10   0.0000       0.088318         2.4033 
  11   0.0000       0.102718         2.7951 
  12   0.0000       0.218403         5.9430 
  13   0.0000       0.228029         6.2050 
  14   0.0000       0.262241         7.1359 
  15   0.0000       0.291669         7.9367 
  16   0.0000       0.310095         8.4381 
  17   0.0000       0.311390         8.4733 
  18   0.0000       0.357786         9.7359 
  19   0.0000       0.568621        15.4730 
  20   0.0000       0.593439        16.1483 
  21   0.0000       0.731967        19.9178 
  22   0.0000       0.747225        20.3330 
  23   0.0000       0.801022        21.7969 
  24   0.0000       0.810546        22.0561 
  25   0.0000       0.864214        23.5165 
  26   0.0000       0.917021        24.9534 
  27   0.0000       0.953097        25.9351 
  28   0.0000       0.960789        26.1444 
  29   0.0000       1.065457        28.9926 
  30   0.0000       1.123031        30.5592 
  31   0.0000       1.151745        31.3406 
  32   0.0000       1.167304        31.7639 
  33   0.0000       1.177635        32.0451 
  34   0.0000       1.434348        39.0306 
  35   0.0000       1.473117        40.0855 
  36   0.0000       1.488442        40.5026 
  37   0.0000       1.686379        45.8887 
  38   0.0000       1.748059        47.5671 
  39   0.0000       1.776769        48.3484 
  40   0.0000       2.759847        75.0993 
  41   0.0000       2.787228        75.8443 
  42   0.0000       2.879633        78.3588 
  43   0.0000       2.902184        78.9725 
  44   0.0000       2.971195        80.8503 
  45   0.0000       3.022363        82.2427 
  46   0.0000       3.026100        82.3444 
  47   0.0000       3.191858        86.8549 
  48   0.0000       3.218219        87.5722 
  49   0.0000       3.309859        90.0658 
  50   0.0000       3.329829        90.6093 
  51   0.0000       3.608637        98.1960 
  52   0.0000       3.776519       102.7643 
  53   0.0000       3.778613       102.8213 
  54   0.0000       3.864031       105.1456 
  55   0.0000       3.904382       106.2436 
  56   0.0000       4.008140       109.0670 
  57   0.0000       4.082250       111.0837 
  58   0.0000       4.175294       113.6155 
  59   0.0000       4.194773       114.1456 
  60   0.0000       4.513657       122.8228 
  61   0.0000       5.047912       137.3607 
  62   0.0000       5.177094       140.8759 
  63   0.0000       5.424792       147.6161 
  64   0.0000       5.568755       151.5335 
  65   0.0000       5.979990       162.7238 
  66   0.0000       6.098247       165.9417 
  67   0.0000       7.698980       209.4999 
  68   0.0000      29.051187       790.5230 
  69   0.0000      37.028864      1007.6066 
  70   0.0000      37.166486      1011.3515 
  71   0.0000      37.235708      1013.2351 
  72   0.0000     133.481160      3632.2070 

                    ********************************
                    * MULLIKEN POPULATION ANALYSIS *
                    ********************************

--------------------------------------------
MULLIKEN ATOMIC CHARGES AND SPIN POPULATIONS
--------------------------------------------
   0 C :   -0.430770    1.110353
   1 H :    0.151272   -0.032063
   2 H :    0.149645   -0.038960
   3 H :    0.129852   -0.039330
Sum of atomic charges         :   -0.0000000
Sum of atomic spin populations:    1.0000000

-----------------------------------------------------
MULLIKEN REDUCED ORBITAL CHARGES AND SPIN POPULATIONS
-----------------------------------------------------
CHARGE
  0 C s       :     3.347630  s :     3.347630
      pz      :     0.983563  p :     3.055219
      px      :     1.018856
      py      :     1.052800
      dz2     :     0.002561  d :     0.025032
      dxz     :     0.004707
      dyz     :     0.002853
      dx2y2   :     0.006100
      dxy     :     0.008812
      f0      :     0.000548  f :     0.002889
      f+1     :     0.000079
      f-1     :     0.000271
      f+2     :     0.000550
      f-2     :     0.000421
      f+3     :     0.000951
      f-3     :     0.000068
  1 H s       :     0.818636  s :     0.818636
      pz      :     0.011106  p :     0.030091
      px      :     0.009822
      py      :     0.009163
  2 H s       :     0.825521  s :     0.825521
      pz      :     0.009612  p :     0.024834
      px      :     0.009438
      py      :     0.005784
  3 H s       :     0.845868  s :     0.845868
      pz      :     0.008805  p :     0.024280
      px      :     0.007231
      py      :     0.008244

SPIN
  0 C s       :     0.068410  s :     0.068410
      pz      :     0.759267  p :     1.046230
      px      :     0.246477
      py      :     0.040486
      dz2     :    -0.001905  d :    -0.002972
      dxz     :    -0.002704
      dyz     :     0.000253
      dx2y2   :     0.000533
      dxy     :     0.000851
      f0      :    -0.000465  f :    -0.001314
      f+1     :    -0.000011
      f-1     :    -0.000273
      f+2     :    -0.000185
      f-2     :    -0.000317
      f+3     :    -0.000064
      f-3     :     0.000002
  1 H s       :    -0.043203  s :    -0.043203
      pz      :     0.008994  p :     0.011141
      px      :     0.002515
      py      :    -0.000368
  2 H s       :    -0.048482  s :    -0.048482
      pz      :     0.007564  p :     0.009522
      px      :     0.002084
      py      :    -0.000126
  3 H s       :    -0.047992  s :    -0.047992
      pz      :     0.007104  p :     0.008661
      px      :     0.001840
      py      :    -0.000283


                     *******************************
                     * LOEWDIN POPULATION ANALYSIS *
                     *******************************

-------------------------------------------
LOEWDIN ATOMIC CHARGES AND SPIN POPULATIONS
-------------------------------------------
   0 C :   -0.172399    0.920137
   1 H :    0.020371    0.039408
   2 H :    0.080472    0.019029
   3 H :    0.071556    0.021427

----------------------------------------------------
LOEWDIN REDUCED ORBITAL CHARGES AND SPIN POPULATIONS
----------------------------------------------------
CHARGE
  0 C s       :     2.903952  s :     2.903952
      pz      :     0.937508  p :     3.171637
      px      :     1.078363
      py      :     1.155766
      dz2     :     0.003981  d :     0.089416
      dxz     :     0.009909
      dyz     :     0.011381
      dx2y2   :     0.028560
      dxy     :     0.035585
      f0      :     0.001612  f :     0.007395
      f+1     :     0.000287
      f-1     :     0.000665
      f+2     :     0.001203
      f-2     :     0.001410
      f+3     :     0.002018
      f-3     :     0.000200
  1 H s       :     0.814702  s :     0.814702
      pz      :     0.048942  p :     0.164927
      px      :     0.051737
      py      :     0.064248
  2 H s       :     0.794733  s :     0.794733
      pz      :     0.041310  p :     0.124794
      px      :     0.059118
      py      :     0.024366
  3 H s       :     0.800081  s :     0.800081
      pz      :     0.036898  p :     0.128363
      px      :     0.034817
      py      :     0.056647

SPIN
  0 C s       :     0.020894  s :     0.020894
      pz      :     0.684485  p :     0.908276
      px      :     0.206557
      py      :     0.017234
      dz2     :    -0.001648  d :    -0.007701
      dxz     :    -0.002791
      dyz     :    -0.000506
      dx2y2   :    -0.001222
      dxy     :    -0.001533
      f0      :    -0.000417  f :    -0.001333
      f+1     :     0.000089
      f-1     :    -0.000238
      f+2     :    -0.000213
      f-2     :    -0.000330
      f+3     :    -0.000220
      f-3     :    -0.000003
  1 H s       :    -0.015335  s :    -0.015335
      pz      :     0.038478  p :     0.054743
      px      :     0.013117
      py      :     0.003148
  2 H s       :    -0.021108  s :    -0.021108
      pz      :     0.027959  p :     0.040137
      px      :     0.011598
      py      :     0.000580
  3 H s       :    -0.019152  s :    -0.019152
      pz      :     0.028214  p :     0.040578
      px      :     0.009165
      py      :     0.003199


                      *****************************
                      * MAYER POPULATION ANALYSIS *
                      *****************************

  NA   - Mulliken gross atomic population
  ZA   - Total nuclear charge
  QA   - Mulliken gross atomic charge
  VA   - Mayer's total valence
  BVA  - Mayer's bonded valence
  FA   - Mayer's free valence

  ATOM       NA         ZA         QA         VA         BVA        FA
  0 C      6.4308     6.0000    -0.4308     3.8683     2.9203     0.9481
  1 H      0.8487     1.0000     0.1513     0.9808     0.9789     0.0019
  2 H      0.8504     1.0000     0.1496     0.9840     0.9817     0.0023
  3 H      0.8701     1.0000     0.1299     0.9800     0.9777     0.0022

  Mayer bond orders larger than 0.100000
B(  0-C ,  1-H ) :   0.9736 B(  0-C ,  2-H ) :   0.9705 B(  0-C ,  3-H ) :   0.9762 


-------
TIMINGS
-------

Total SCF time: 0 days 0 hours 0 min 4 sec 

Total time                  ....       4.711 sec
Sum of individual times     ....       4.126 sec  ( 87.6%)

Fock matrix formation       ....       3.529 sec  ( 74.9%)
  Split-RI-J                ....       0.354 sec  ( 10.0% of F)
  Chain of spheres X        ....       0.875 sec  ( 24.8% of F)
  XC integration            ....       1.542 sec  ( 43.7% of F)
    Basis function eval.    ....       0.111 sec  (  7.2% of XC)
    Density eval.           ....       0.107 sec  (  6.9% of XC)
    XC-Functional eval.     ....       0.092 sec  (  6.0% of XC)
    XC-Potential eval.      ....       0.156 sec  ( 10.1% of XC)
Diagonalization             ....       0.035 sec  (  0.7%)
Density matrix formation    ....       0.002 sec  (  0.0%)
Population analysis         ....       0.058 sec  (  1.2%)
Initial guess               ....       0.051 sec  (  1.1%)
Orbital Transformation      ....       0.000 sec  (  0.0%)
Orbital Orthonormalization  ....       0.000 sec  (  0.0%)
DIIS solution               ....       0.053 sec  (  1.1%)
Grid generation             ....       0.398 sec  (  8.5%)

Maximum memory used throughout the entire SCF-calculation: 59.0 MB

-------------------------   --------------------
FINAL SINGLE POINT ENERGY       -39.819011556529
-------------------------   --------------------

   --->>> g-tensor requested, so NeedSOC=true

                            ***************************************
                            *     ORCA property calculations      *
                            ***************************************

                                    ---------------------
                                    Active property flags
                                    ---------------------
   (+) Dipole Moment
   (+) g-tensor
   (+) Nuclear properties (Hyperfine,Quadrupole)
   (+) Spin-Orbit Integrals are needed


------------------------------------------------------------------------------
                       ORCA ELECTRIC PROPERTIES CALCULATION
------------------------------------------------------------------------------

Dipole Moment Calculation                       ... on
Quadrupole Moment Calculation                   ... off
Polarizability Calculation                      ... off
GBWName                                         ... /home/rwth0701/scratch/cs681498/orcajob__30556258-3wlJ/6837.gbw
Electron density                                ... /home/rwth0701/scratch/cs681498/orcajob__30556258-3wlJ/6837.scfp
The origin for moment calculation is the CENTER OF MASS  = (-34.513600, -67.230892 -28.559425)

-------------
DIPOLE MOMENT
-------------
                                X             Y             Z
Electronic contribution:     -0.03203       0.16142       0.03849
Nuclear contribution   :      0.03864      -0.15973      -0.04820
                        -----------------------------------------
Total Dipole Moment    :      0.00662       0.00169      -0.00971
                        -----------------------------------------
Magnitude (a.u.)       :      0.01187
Magnitude (Debye)      :      0.03018



--------------------
Rotational spectrum 
--------------------
 
Rotational constants in cm-1:    10.342348     8.014802     4.515767 
Rotational constants in MHz : 310055.786151 240277.712605 135379.302552 

 Dipole components along the rotational axes: 
x,y,z [a.u.] :    -0.010396     0.001559    -0.005521 
x,y,z [Debye]:    -0.026424     0.003963    -0.014034 

 


           ************************************************************
           *        Program running with 4 parallel MPI-processes     *
           *              working on a common directory               *
           ************************************************************
------------------------------------------------------------------------------
                         ORCA SPIN-ORBIT COUPLING CALCULATION
------------------------------------------------------------------------------

GBW file                                    ... /home/rwth0701/scratch/cs681498/orcajob__30556258-3wlJ/6837.gbw
Input density                               ... /home/rwth0701/scratch/cs681498/orcajob__30556258-3wlJ/6837.scfp
Output integrals                            ... /home/rwth0701/scratch/cs681498/orcajob__30556258-3wlJ/6837
Operator type                               ... Mean-field/Effective potential
   One-Electron Terms                       ... 1
   Coulomb Contribution                     ... 3
   Exchange Contribution                    ... 3
   Correlation Contribution                 ... 0
   Maximum number of centers                ... 4
SHARK 2-electron RIJ-SOMF                   ... done (  0.1 sec)
SHARK 1-electron  MaxCenter=4               ... done (  0.0 sec)
SHARK 2-electron DoJ,X=0,1 MaxCenter=1      ... done (  0.1 sec)

Maximum memory used throughout the entire SOC-calculation: 11.3 MB
Total time for SOC:  2.043


           ************************************************************
           *        Program running with 4 parallel MPI-processes     *
           *              working on a common directory               *
           ************************************************************
------------------------------------------------------------------------------
                                ORCA EPR/NMR CALCULATION
------------------------------------------------------------------------------

GBWName                      ... /home/rwth0701/scratch/cs681498/orcajob__30556258-3wlJ/6837.gbw
Electron density             ... /home/rwth0701/scratch/cs681498/orcajob__30556258-3wlJ/6837.scfp
Spin density                 ... /home/rwth0701/scratch/cs681498/orcajob__30556258-3wlJ/6837.scfr
Spin-orbit integrals         ... /home/rwth0701/scratch/cs681498/orcajob__30556258-3wlJ/6837
Treatment of gauge           ... GIAO (approximations 1/2el = 0,0)
Details of the CP(SCF) procedure:
       Solver   = POPLE   
       MaxIter  =    64   
       Tolerance=    1.000e-03
       COSX Grid=     1   
       Op-0     =   0-  4 =>   5- 72
       Op-1     =   0-  3 =>   4- 72
Multiplicity                 ... 2
g-tensor                     ... 1
NMR chemical shifts          ... 0
NMR spin-spin couplings      ... 0
NMR spectrum                 ... 0
Number of nuclei for epr/nmr ... 4
   Nucleus:   1H 
       Hyperfine : Isotope=    1 I=   0.500 P= 533.551
       Quadrupole: Isotope=    2 I=   1.000 Q=   0.003
       Spin-Orbit: Zeff=   1.000
       Nuclear Spin-Spin: Gn=   0.000
       EPRNMR Input: 
       rho(0)=N f(grad)=N a(iso)=Y a(dip)=Y a(orb)=Y sigma(nmr)=N spin-spin(nmr)=all-N,DSO-N,PSO-N,FC-N,SD-N
   Nucleus:   2H 
       Hyperfine : Isotope=    1 I=   0.500 P= 533.551
       Quadrupole: Isotope=    2 I=   1.000 Q=   0.003
       Spin-Orbit: Zeff=   1.000
       Nuclear Spin-Spin: Gn=   0.000
       EPRNMR Input: 
       rho(0)=N f(grad)=N a(iso)=Y a(dip)=Y a(orb)=Y sigma(nmr)=N spin-spin(nmr)=all-N,DSO-N,PSO-N,FC-N,SD-N
   Nucleus:   3H 
       Hyperfine : Isotope=    1 I=   0.500 P= 533.551
       Quadrupole: Isotope=    2 I=   1.000 Q=   0.003
       Spin-Orbit: Zeff=   1.000
       Nuclear Spin-Spin: Gn=   0.000
       EPRNMR Input: 
       rho(0)=N f(grad)=N a(iso)=Y a(dip)=Y a(orb)=Y sigma(nmr)=N spin-spin(nmr)=all-N,DSO-N,PSO-N,FC-N,SD-N
   Nucleus:   0C 
       Hyperfine : Isotope=   13 I=   0.500 P= 134.190
       Quadrupole: Isotope=   13 I=   0.500 Q=   0.000
       Spin-Orbit: Zeff=   3.600
       Nuclear Spin-Spin: Gn=   0.000
       EPRNMR Input: 
       rho(0)=N f(grad)=N a(iso)=Y a(dip)=Y a(orb)=Y sigma(nmr)=N spin-spin(nmr)=all-N,DSO-N,PSO-N,FC-N,SD-N
Forming RHS of the CP-SCF equations         ... 
Calculating right hand sides for GIAO treatment        ... 
  Entering RightHandSide GIAO. ScalHFX=    0.2000 NeedHFX=1
     -> 1-electron GIAO integrals will be done analytically
     -> RIJCOSX used in SCF. Same chosen for GIAO calculation.
     Making grid for GIAO integrations   ...

GRID GIAO
---------

General Integration Accuracy     IntAcc      ... 4.388
Radial Grid Type                 RadialGrid  ... OptM3 with GC (2021)
Angular Grid (max. ang.)         AngularGrid ... 4 (Lebedev-302)
Angular grid pruning method      GridPruning ... 4 (adaptive)
Weight generation scheme         WeightScheme... Becke
Basis function cutoff            BFCut       ... 1.0000e-10
Integration weight cutoff        WCut        ... 1.0000e-14
Angular grids for H and He will be reduced by one unit
Partially contracted basis set               ... off
Rotationally invariant grid construction     ... off

Total number of grid points                  ...    17060
Total number of batches                      ...      268
Average number of points per batch           ...       63
Average number of grid points per atom       ...     4265

  One-electron GIAO integrals (SHARK)     ... done
  Calculating G(B)[P]                     ... (RI-J: SHARK-ok) (COSX-ok) (add-J+K:ok) => dG/dB done
  DFT XC-terms                            ... done
  Extracting occupied and virtual blocks  ... 
  Operator  0  NO=   5 NV=  68 
  Operator  1  NO=   4 NV=  69 
  Transforming and RHS contribution       ... done
  Adding eps_i * S(B)_ai terms            ... done
  Projecting overlap derivatives          ... done
  Building G[dS/dB_ij] (COSX)             ... done
  Transforming to MO basis                ... done
  Summing G[dS/dB_ij] into RHS contribs.  ... done

  GIAO profiling information: 
    Total GIAO time               ...       0.8 sec
       GIAO 1-electron integrals  ...       0.0 sec (  1.9%)
       GIAO G(dS/dB) terms        ...       0.1 sec ( 12.7%)
       GIAO RI-J                  ...       0.1 sec ( 13.0%)
       GIAO COSX                  ...       0.1 sec ( 18.7%)
       GIAO XC-terms              ...       0.3 sec ( 36.3%)

  GIAO right hand side done


------------------------------------------------------------------------------
                           ORCA CP-SCF CALCULATION
------------------------------------------------------------------------------

Input orbitals are from        ... /home/rwth0701/scratch/cs681498/orcajob__30556258-3wlJ/6837.gbw
Input Perturbation             ... /home/rwth0701/scratch/cs681498/orcajob__30556258-3wlJ/6837.pin.tmp
Wavefunction output            ... /home/rwth0701/scratch/cs681498/orcajob__30556258-3wlJ/6837.pout.tmp
Perturbation mode              ... Imaginary perturbation
Solver                         ... POPLE
Max. number of iterations      ... 64
Convergence tolerance          ... 1.000e-03
Integral handling              ... Direct
DFT GridXC                     ... 1
COSX GridX                     ... 1
COSX IntAccX                   ... 3.067
COSX Algorithm                 ... Auto
Number of perturbations        ... 3
Number of operators            ... 2
Orbital ranges used for CP-SCF:
 Operator 0:  Orbitals   0...  4  to   5... 72
 Operator 1:  Orbitals   0...  3  to   4... 72
Variables per perturbation     ... 616
DFT calculation                         ... on
XC functional terms                     ... off
Hybrid DFT                              ... on
   Exchange mixing (SCF)                ...  0.200
   Exchange mixing (CP-SCF)             ...  0.200
   GGA exch. scaling(SCF)               ...  0.720
   GGA exch. scaling (CP-SCF)           ...  0.720
   GGA corr. scaling (SCF)              ...  0.810
   GGA corr. scaling (CP-SCF)           ...  0.810

CP-SCF GRID
-----------

General Integration Accuracy     IntAcc      ... 3.467
Radial Grid Type                 RadialGrid  ... OptM3 with GC (2021)
Angular Grid (max. ang.)         AngularGrid ... 1 (Lebedev-50)
Angular grid pruning method      GridPruning ... 4 (adaptive)
Weight generation scheme         WeightScheme... Becke
Basis function cutoff            BFCut       ... 1.0000e-10
Integration weight cutoff        WCut        ... 1.0000e-14
Angular grids for H and He will be reduced by one unit
Partially contracted basis set               ... off
Rotationally invariant grid construction     ... off

Total number of grid points                  ...     2332
Total number of batches                      ...       38
Average number of points per batch           ...       61
Average number of grid points per atom       ...      583

CP-SCF GRIDX
------------

General Integration Accuracy     IntAcc      ... 3.067
Radial Grid Type                 RadialGrid  ... OptM3 with GC (2021)
Angular Grid (max. ang.)         AngularGrid ... 1 (Lebedev-50)
Angular grid pruning method      GridPruning ... 4 (adaptive)
Weight generation scheme         WeightScheme... Becke
Basis function cutoff            BFCut       ... 1.0000e-10
Integration weight cutoff        WCut        ... 1.0000e-14
Angular grids for H and He will be reduced by one unit
Partially contracted basis set               ... on
Rotationally invariant grid construction     ... off

Total number of grid points                  ...     1076
Total number of batches                      ...       19
Average number of points per batch           ...       56
Average number of grid points per atom       ...      269

Memory available               ... 1014.6 MB
Memory needed per perturbation ...   0.4 MB
Perturbations treated per batch... 3
Number of batches              ... 1
     CP-SCF ITERATION   0:   3.5356e+00 (   0.1 sec   0/  3 done)
     CP-SCF ITERATION   1:   3.4469e-02 (   0.1 sec   0/  3 done)
     CP-SCF ITERATION   2:   3.3465e-03 (   0.1 sec   0/  3 done)
     CP-SCF ITERATION   3:   2.1856e-04 (   0.1 sec   3/  3 done)
                    *** THE CP-SCF HAS CONVERGED ***

Forming final perturbed densities           ... done
Transforming perturbed density to AO basis  ... done

Magnetic field perturbation calculated in  1.316 sec
GIAO: Diamagnetic terms      (analytic)     (SHARK) ... done
GIAO: 1el-Paramagnetic terms (analytic)     (SHARK) ... done

-------------------
ELECTRONIC G-MATRIX
-------------------

 The g-matrix: 
              2.0027667    0.0000017   -0.0002850
              0.0000157    2.0028577    0.0000320
             -0.0002865    0.0000339    2.0023866

 gel          2.0023193    2.0023193    2.0023193
 gRMC        -0.0001280   -0.0001280   -0.0001280
 gDSO(tot)    0.0000345    0.0000708    0.0000709
 gPSO(tot)    0.0000060    0.0005964    0.0006587
             ----------   ----------   ----------
 g(tot)       2.0022317    2.0028585    2.0029208 iso=  2.0026703
 Delta-g     -0.0000876    0.0005392    0.0006015 iso=  0.0003511
 Orientation: 
  X           0.4711687   -0.1378126    0.8712105
  Y          -0.0528838   -0.9903556   -0.1280589
  Z           0.8804563    0.0142644   -0.4739126

Notes:  (1) The g-matrix conforms to the "BgS" spin Hamiltonian convention. 
        (2) The principal values are square roots of the eigenvalues of g*gT.
        (3) Orientations are eigenvectors of g*gT written as column vectors.
        (4) Individual contributions are projections of the full matrices onto the eigenvectors of g*gT.
        (5) Tensor is right-handed.


-----------------------------------------
ELECTRIC AND MAGNETIC HYPERFINE STRUCTURE
-----------------------------------------

 -----------------------------------------------------------
 Nucleus   1H : A:ISTP=    1 I=  0.5 P=533.5514 MHz/au**3
                Q:ISTP=    2 I=  1.0 Q=  0.0029 barn     
 -----------------------------------------------------------
 Solving for nuclear perturbation:
Forming RHS of the CP-SCF equations         ... 
Calc. nucleus orbit integrals (SHARK)       ... done

------------------------------------------------------------------------------
                           ORCA CP-SCF CALCULATION
------------------------------------------------------------------------------

Input orbitals are from        ... /home/rwth0701/scratch/cs681498/orcajob__30556258-3wlJ/6837.gbw
Input Perturbation             ... /home/rwth0701/scratch/cs681498/orcajob__30556258-3wlJ/6837.pin.tmp
Wavefunction output            ... /home/rwth0701/scratch/cs681498/orcajob__30556258-3wlJ/6837.pout.tmp
Perturbation mode              ... Imaginary perturbation
Solver                         ... POPLE
Max. number of iterations      ... 64
Convergence tolerance          ... 1.000e-03
Integral handling              ... Direct
DFT GridXC                     ... 1
COSX GridX                     ... 1
COSX IntAccX                   ... 3.067
COSX Algorithm                 ... Auto
Number of perturbations        ... 3
Number of operators            ... 2
Orbital ranges used for CP-SCF:
 Operator 0:  Orbitals   0...  4  to   5... 72
 Operator 1:  Orbitals   0...  3  to   4... 72
Variables per perturbation     ... 616
DFT calculation                         ... on
XC functional terms                     ... off
Hybrid DFT                              ... on
   Exchange mixing (SCF)                ...  0.200
   Exchange mixing (CP-SCF)             ...  0.200
   GGA exch. scaling(SCF)               ...  0.720
   GGA exch. scaling (CP-SCF)           ...  0.720
   GGA corr. scaling (SCF)              ...  0.810
   GGA corr. scaling (CP-SCF)           ...  0.810

CP-SCF GRID
-----------

General Integration Accuracy     IntAcc      ... 3.467
Radial Grid Type                 RadialGrid  ... OptM3 with GC (2021)
Angular Grid (max. ang.)         AngularGrid ... 1 (Lebedev-50)
Angular grid pruning method      GridPruning ... 4 (adaptive)
Weight generation scheme         WeightScheme... Becke
Basis function cutoff            BFCut       ... 1.0000e-10
Integration weight cutoff        WCut        ... 1.0000e-14
Angular grids for H and He will be reduced by one unit
Partially contracted basis set               ... off
Rotationally invariant grid construction     ... off

Total number of grid points                  ...     2332
Total number of batches                      ...       38
Average number of points per batch           ...       61
Average number of grid points per atom       ...      583

CP-SCF GRIDX
------------

General Integration Accuracy     IntAcc      ... 3.067
Radial Grid Type                 RadialGrid  ... OptM3 with GC (2021)
Angular Grid (max. ang.)         AngularGrid ... 1 (Lebedev-50)
Angular grid pruning method      GridPruning ... 4 (adaptive)
Weight generation scheme         WeightScheme... Becke
Basis function cutoff            BFCut       ... 1.0000e-10
Integration weight cutoff        WCut        ... 1.0000e-14
Angular grids for H and He will be reduced by one unit
Partially contracted basis set               ... on
Rotationally invariant grid construction     ... off

Total number of grid points                  ...     1076
Total number of batches                      ...       19
Average number of points per batch           ...       56
Average number of grid points per atom       ...      269

Memory available               ... 968.0 MB
Memory needed per perturbation ...   0.4 MB
Perturbations treated per batch... 3
Number of batches              ... 1
     CP-SCF ITERATION   0:   7.5346e-02 (   0.1 sec   0/  3 done)
     CP-SCF ITERATION   1:   3.0473e-03 (   0.1 sec   0/  3 done)
     CP-SCF ITERATION   2:   2.6393e-04 (   0.1 sec   3/  3 done)
                    *** THE CP-SCF HAS CONVERGED ***

Forming final perturbed densities           ... done
Transforming perturbed density to AO basis  ... done

 Raw HFC matrix (all values in MHz): 
 -----------------------------------
               -70.4117              36.1088               7.3286
                36.1075             -56.9543             -19.3457
                 7.3285             -19.3464             -65.8833

 A(FC)         -64.4305             -64.4305             -64.4305
 A(SD)          40.2436               3.6496             -43.8932
 A(ORB+DIA)      0.0095              -0.0005               0.0332    A(PC) =   0.0141
 A(ORB)          0.0039               0.0007               0.0315    A(PC) =   0.0120
 A(DIA)          0.0056              -0.0012               0.0017    A(PC) =   0.0020
             ----------           ----------           ----------
 A(Tot)        -24.1774             -60.7814            -108.2905    A(iso)=  -64.4164
 Orientation: 
  X           0.5678394           -0.4758476           -0.6716602
  Y           0.7802793            0.0513012            0.6233237
  Z          -0.2621501           -0.8780303            0.4004248

Notes:  (1) The A matrix conforms to the "SAI" spin Hamiltonian convention.
        (2) Tensor is right-handed.

 -----------------------------------------------------------
 Nucleus   2H : A:ISTP=    1 I=  0.5 P=533.5514 MHz/au**3
                Q:ISTP=    2 I=  1.0 Q=  0.0029 barn     
 -----------------------------------------------------------
 Solving for nuclear perturbation:
Forming RHS of the CP-SCF equations         ... 
Calc. nucleus orbit integrals (SHARK)       ... done

------------------------------------------------------------------------------
                           ORCA CP-SCF CALCULATION
------------------------------------------------------------------------------

Input orbitals are from        ... /home/rwth0701/scratch/cs681498/orcajob__30556258-3wlJ/6837.gbw
Input Perturbation             ... /home/rwth0701/scratch/cs681498/orcajob__30556258-3wlJ/6837.pin.tmp
Wavefunction output            ... /home/rwth0701/scratch/cs681498/orcajob__30556258-3wlJ/6837.pout.tmp
Perturbation mode              ... Imaginary perturbation
Solver                         ... POPLE
Max. number of iterations      ... 64
Convergence tolerance          ... 1.000e-03
Integral handling              ... Direct
DFT GridXC                     ... 1
COSX GridX                     ... 1
COSX IntAccX                   ... 3.067
COSX Algorithm                 ... Auto
Number of perturbations        ... 3
Number of operators            ... 2
Orbital ranges used for CP-SCF:
 Operator 0:  Orbitals   0...  4  to   5... 72
 Operator 1:  Orbitals   0...  3  to   4... 72
Variables per perturbation     ... 616
DFT calculation                         ... on
XC functional terms                     ... off
Hybrid DFT                              ... on
   Exchange mixing (SCF)                ...  0.200
   Exchange mixing (CP-SCF)             ...  0.200
   GGA exch. scaling(SCF)               ...  0.720
   GGA exch. scaling (CP-SCF)           ...  0.720
   GGA corr. scaling (SCF)              ...  0.810
   GGA corr. scaling (CP-SCF)           ...  0.810

CP-SCF GRID
-----------

General Integration Accuracy     IntAcc      ... 3.467
Radial Grid Type                 RadialGrid  ... OptM3 with GC (2021)
Angular Grid (max. ang.)         AngularGrid ... 1 (Lebedev-50)
Angular grid pruning method      GridPruning ... 4 (adaptive)
Weight generation scheme         WeightScheme... Becke
Basis function cutoff            BFCut       ... 1.0000e-10
Integration weight cutoff        WCut        ... 1.0000e-14
Angular grids for H and He will be reduced by one unit
Partially contracted basis set               ... off
Rotationally invariant grid construction     ... off

Total number of grid points                  ...     2332
Total number of batches                      ...       38
Average number of points per batch           ...       61
Average number of grid points per atom       ...      583

CP-SCF GRIDX
------------

General Integration Accuracy     IntAcc      ... 3.067
Radial Grid Type                 RadialGrid  ... OptM3 with GC (2021)
Angular Grid (max. ang.)         AngularGrid ... 1 (Lebedev-50)
Angular grid pruning method      GridPruning ... 4 (adaptive)
Weight generation scheme         WeightScheme... Becke
Basis function cutoff            BFCut       ... 1.0000e-10
Integration weight cutoff        WCut        ... 1.0000e-14
Angular grids for H and He will be reduced by one unit
Partially contracted basis set               ... on
Rotationally invariant grid construction     ... off

Total number of grid points                  ...     1076
Total number of batches                      ...       19
Average number of points per batch           ...       56
Average number of grid points per atom       ...      269

Memory available               ... 967.8 MB
Memory needed per perturbation ...   0.4 MB
Perturbations treated per batch... 3
Number of batches              ... 1
     CP-SCF ITERATION   0:   5.6287e-02 (   0.1 sec   0/  3 done)
     CP-SCF ITERATION   1:   2.4226e-03 (   0.1 sec   0/  3 done)
     CP-SCF ITERATION   2:   1.7814e-04 (   0.1 sec   3/  3 done)
                    *** THE CP-SCF HAS CONVERGED ***

Forming final perturbed densities           ... done
Transforming perturbed density to AO basis  ... done

 Raw HFC matrix (all values in MHz): 
 -----------------------------------
               -43.4485               1.3468             -15.8597
                 1.3451            -106.3328              -2.8296
               -15.8598              -2.8305             -65.4713

 A(FC)         -71.7637             -71.7637             -71.7637
 A(SD)          36.6877              -1.8951             -34.7926
 A(ORB+DIA)      0.0117              -0.0007               0.0273    A(PC) =   0.0128
 A(ORB)          0.0076               0.0004               0.0262    A(PC) =   0.0114
 A(DIA)          0.0042              -0.0011               0.0011    A(PC) =   0.0014
             ----------           ----------           ----------
 A(Tot)        -35.0642             -73.6594            -106.5290    A(iso)=  -71.7509
 Orientation: 
  X           0.8847491            0.4660465            0.0044443
  Y           0.0351714           -0.0572552           -0.9977399
  Z          -0.4647387            0.8829057           -0.0670480

Notes:  (1) The A matrix conforms to the "SAI" spin Hamiltonian convention.
        (2) Tensor is right-handed.

 -----------------------------------------------------------
 Nucleus   3H : A:ISTP=    1 I=  0.5 P=533.5514 MHz/au**3
                Q:ISTP=    2 I=  1.0 Q=  0.0029 barn     
 -----------------------------------------------------------
 Solving for nuclear perturbation:
Forming RHS of the CP-SCF equations         ... 
Calc. nucleus orbit integrals (SHARK)       ... done

------------------------------------------------------------------------------
                           ORCA CP-SCF CALCULATION
------------------------------------------------------------------------------

Input orbitals are from        ... /home/rwth0701/scratch/cs681498/orcajob__30556258-3wlJ/6837.gbw
Input Perturbation             ... /home/rwth0701/scratch/cs681498/orcajob__30556258-3wlJ/6837.pin.tmp
Wavefunction output            ... /home/rwth0701/scratch/cs681498/orcajob__30556258-3wlJ/6837.pout.tmp
Perturbation mode              ... Imaginary perturbation
Solver                         ... POPLE
Max. number of iterations      ... 64
Convergence tolerance          ... 1.000e-03
Integral handling              ... Direct
DFT GridXC                     ... 1
COSX GridX                     ... 1
COSX IntAccX                   ... 3.067
COSX Algorithm                 ... Auto
Number of perturbations        ... 3
Number of operators            ... 2
Orbital ranges used for CP-SCF:
 Operator 0:  Orbitals   0...  4  to   5... 72
 Operator 1:  Orbitals   0...  3  to   4... 72
Variables per perturbation     ... 616
DFT calculation                         ... on
XC functional terms                     ... off
Hybrid DFT                              ... on
   Exchange mixing (SCF)                ...  0.200
   Exchange mixing (CP-SCF)             ...  0.200
   GGA exch. scaling(SCF)               ...  0.720
   GGA exch. scaling (CP-SCF)           ...  0.720
   GGA corr. scaling (SCF)              ...  0.810
   GGA corr. scaling (CP-SCF)           ...  0.810

CP-SCF GRID
-----------

General Integration Accuracy     IntAcc      ... 3.467
Radial Grid Type                 RadialGrid  ... OptM3 with GC (2021)
Angular Grid (max. ang.)         AngularGrid ... 1 (Lebedev-50)
Angular grid pruning method      GridPruning ... 4 (adaptive)
Weight generation scheme         WeightScheme... Becke
Basis function cutoff            BFCut       ... 1.0000e-10
Integration weight cutoff        WCut        ... 1.0000e-14
Angular grids for H and He will be reduced by one unit
Partially contracted basis set               ... off
Rotationally invariant grid construction     ... off

Total number of grid points                  ...     2332
Total number of batches                      ...       38
Average number of points per batch           ...       61
Average number of grid points per atom       ...      583

CP-SCF GRIDX
------------

General Integration Accuracy     IntAcc      ... 3.067
Radial Grid Type                 RadialGrid  ... OptM3 with GC (2021)
Angular Grid (max. ang.)         AngularGrid ... 1 (Lebedev-50)
Angular grid pruning method      GridPruning ... 4 (adaptive)
Weight generation scheme         WeightScheme... Becke
Basis function cutoff            BFCut       ... 1.0000e-10
Integration weight cutoff        WCut        ... 1.0000e-14
Angular grids for H and He will be reduced by one unit
Partially contracted basis set               ... on
Rotationally invariant grid construction     ... off

Total number of grid points                  ...     1076
Total number of batches                      ...       19
Average number of points per batch           ...       56
Average number of grid points per atom       ...      269

Memory available               ... 967.7 MB
Memory needed per perturbation ...   0.4 MB
Perturbations treated per batch... 3
Number of batches              ... 1
     CP-SCF ITERATION   0:   5.6611e-02 (   0.1 sec   0/  3 done)
     CP-SCF ITERATION   1:   1.9394e-03 (   0.1 sec   0/  3 done)
     CP-SCF ITERATION   2:   1.5672e-04 (   0.1 sec   3/  3 done)
                    *** THE CP-SCF HAS CONVERGED ***

Forming final perturbed densities           ... done
Transforming perturbed density to AO basis  ... done

 Raw HFC matrix (all values in MHz): 
 -----------------------------------
               -80.3003             -27.3707               5.2571
               -27.3696             -47.4852              16.2154
                 5.2572              16.2160             -68.5885

 A(FC)         -65.4716             -65.4716             -65.4716
 A(SD)          36.9901              -1.4465             -35.5436
 A(ORB+DIA)      0.0124              -0.0007               0.0293    A(PC) =   0.0137
 A(ORB)          0.0081               0.0004               0.0281    A(PC) =   0.0122
 A(DIA)          0.0043              -0.0011               0.0012    A(PC) =   0.0015
             ----------           ----------           ----------
 A(Tot)        -28.4692             -66.9188            -100.9859    A(iso)=  -65.4580
 Orientation: 
  X           0.4234593            0.4748749           -0.7714765
  Y          -0.8578293           -0.0635705           -0.5099880
  Z          -0.2912236            0.8777543            0.3804421

Notes:  (1) The A matrix conforms to the "SAI" spin Hamiltonian convention.
        (2) Tensor is right-handed.

 -----------------------------------------------------------
 Nucleus   0C : A:ISTP=   13 I=  0.5 P=134.1903 MHz/au**3
                Q:ISTP=   13 I=  0.5 Q=  0.0000 barn     
 -----------------------------------------------------------
 Solving for nuclear perturbation:
Forming RHS of the CP-SCF equations         ... 
Calc. nucleus orbit integrals (SHARK)       ... done

------------------------------------------------------------------------------
                           ORCA CP-SCF CALCULATION
------------------------------------------------------------------------------

Input orbitals are from        ... /home/rwth0701/scratch/cs681498/orcajob__30556258-3wlJ/6837.gbw
Input Perturbation             ... /home/rwth0701/scratch/cs681498/orcajob__30556258-3wlJ/6837.pin.tmp
Wavefunction output            ... /home/rwth0701/scratch/cs681498/orcajob__30556258-3wlJ/6837.pout.tmp
Perturbation mode              ... Imaginary perturbation
Solver                         ... POPLE
Max. number of iterations      ... 64
Convergence tolerance          ... 1.000e-03
Integral handling              ... Direct
DFT GridXC                     ... 1
COSX GridX                     ... 1
COSX IntAccX                   ... 3.067
COSX Algorithm                 ... Auto
Number of perturbations        ... 3
Number of operators            ... 2
Orbital ranges used for CP-SCF:
 Operator 0:  Orbitals   0...  4  to   5... 72
 Operator 1:  Orbitals   0...  3  to   4... 72
Variables per perturbation     ... 616
DFT calculation                         ... on
XC functional terms                     ... off
Hybrid DFT                              ... on
   Exchange mixing (SCF)                ...  0.200
   Exchange mixing (CP-SCF)             ...  0.200
   GGA exch. scaling(SCF)               ...  0.720
   GGA exch. scaling (CP-SCF)           ...  0.720
   GGA corr. scaling (SCF)              ...  0.810
   GGA corr. scaling (CP-SCF)           ...  0.810

CP-SCF GRID
-----------

General Integration Accuracy     IntAcc      ... 3.467
Radial Grid Type                 RadialGrid  ... OptM3 with GC (2021)
Angular Grid (max. ang.)         AngularGrid ... 1 (Lebedev-50)
Angular grid pruning method      GridPruning ... 4 (adaptive)
Weight generation scheme         WeightScheme... Becke
Basis function cutoff            BFCut       ... 1.0000e-10
Integration weight cutoff        WCut        ... 1.0000e-14
Angular grids for H and He will be reduced by one unit
Partially contracted basis set               ... off
Rotationally invariant grid construction     ... off

Total number of grid points                  ...     2332
Total number of batches                      ...       38
Average number of points per batch           ...       61
Average number of grid points per atom       ...      583

CP-SCF GRIDX
------------

General Integration Accuracy     IntAcc      ... 3.067
Radial Grid Type                 RadialGrid  ... OptM3 with GC (2021)
Angular Grid (max. ang.)         AngularGrid ... 1 (Lebedev-50)
Angular grid pruning method      GridPruning ... 4 (adaptive)
Weight generation scheme         WeightScheme... Becke
Basis function cutoff            BFCut       ... 1.0000e-10
Integration weight cutoff        WCut        ... 1.0000e-14
Angular grids for H and He will be reduced by one unit
Partially contracted basis set               ... on
Rotationally invariant grid construction     ... off

Total number of grid points                  ...     1076
Total number of batches                      ...       19
Average number of points per batch           ...       56
Average number of grid points per atom       ...      269

Memory available               ... 967.6 MB
Memory needed per perturbation ...   0.4 MB
Perturbations treated per batch... 3
Number of batches              ... 1
     CP-SCF ITERATION   0:   1.0875e+00 (   0.1 sec   0/  3 done)
     CP-SCF ITERATION   1:   4.3884e-02 (   0.1 sec   0/  3 done)
     CP-SCF ITERATION   2:   3.2478e-03 (   0.1 sec   0/  3 done)
     CP-SCF ITERATION   3:   1.8172e-04 (   0.1 sec   3/  3 done)
                    *** THE CP-SCF HAS CONVERGED ***

Forming final perturbed densities           ... done
Transforming perturbed density to AO basis  ... done

 Raw HFC matrix (all values in MHz): 
 -----------------------------------
                63.2353              -7.0867             100.6335
                -7.0868              10.2987             -11.9188
               100.6335             -11.9188             197.0355

 A(FC)          90.3118              90.3118              90.3118
 A(SD)         -81.3545             -80.1190             161.4735
 A(ORB+DIA)     -0.1816              -0.1708              -0.0135    A(PC) =  -0.1219
 A(ORB)         -0.1820              -0.1711              -0.0134    A(PC) =  -0.1222
 A(DIA)          0.0004               0.0004              -0.0001    A(PC) =   0.0002
             ----------           ----------           ----------
 A(Tot)          8.7757              10.0220             251.7719    A(iso)=   90.1899
 Orientation: 
  X           0.6911708           -0.5474515            0.4717837
  Y           0.6436063            0.7632107           -0.0572742
  Z          -0.3287155            0.3432292            0.8798522

Notes:  (1) The A matrix conforms to the "SAI" spin Hamiltonian convention.
        (2) Tensor is right-handed.


--------------------------------------------------------------------------------
----------------------------------------------------------------------------
                           ORCA EULER ANGLE PROGRAM
----------------------------------------------------------------------------

Only g-tensor available        -->  using g-tensor as reference tensor

Reference tensor               ...  g

g-tensor ordering              ...  |g_min> --> |gx>
                                    |g_mid> --> |gy>
                                    |g_max> --> |gz>

A- and EFG-tensor ordering     ...  the axes |Ax>, |Qx>, |Ay>, etc. are assigned
                                    such that the Euler rotation is minimal. You
                                    can find the respective eigenvalues as Ax,
                                    EFGx, Ay, etc. in the tables below.
                                    The relation of |Ax>, |Ay>,  etc. to Amin, Amid, etc.
                                    (as printed in the ORCA EPR/NMR CALCULATION Output)
                                    is obtained in the detailed printout.

Euler rotation around          ...  z - y - z
   First rotation              -->  by alpha around z
   Second rotation             -->  by beta around y'
   Third rotation              -->  by gamma around z''
   Positive / Negative angle   -->  clockwise / counterclockwise rotation

Plot EFG-tensors                    (-)
Plot HFC-tensors                    (-)
Detailed Printout                   (-)

-------------------------------------------------------------------------
          Euler rotation of hyperfine tensor to g-tensor
-------------------------------------------------------------------------

-------------------------------------------------------------------
 Atom  |   Alpha    Beta    Gamma   |   Ax       Ay       Az 
       |          [degrees]         |           [MHz]         
-------------------------------------------------------------------
  1H      -89.4     31.3     89.7     -60.78   -24.18  -108.29
  2H       91.8      9.4    -92.0     -73.66  -106.53   -35.06
  3H       89.5     38.1    -90.1     -66.92   -28.47  -100.99
  0C      -89.9     42.5     89.7     251.77     8.78    10.02
-------------------------------------------------------------------


Maximum memory used throughout the entire EPRNMR-calculation: 67.6 MB

Timings for individual modules:

Sum of individual times         ...       16.678 sec (=   0.278 min)
GTO integral calculation        ...        2.254 sec (=   0.038 min)  13.5 %
Spin-Orbit-Coupling Matrices    ...        2.034 sec (=   0.034 min)  12.2 %
SCF iterations                  ...        6.417 sec (=   0.107 min)  38.5 %
EPR/NMR calculation             ...        5.973 sec (=   0.100 min)  35.8 %
                             ****ORCA TERMINATED NORMALLY****
TOTAL RUN TIME: 0 days 0 hours 0 minutes 18 seconds 939 msec
