Job execution start: Mon Oct 24 18:42:51 CEST 2022
Shared library path: /home/cs681498/orca:/opt/MPI/openmpi-4.1.1/linux/gcc_4.8.5/lib:/opt/MPI/openmpi-4.1.1/linux/gcc_4.8.5/lib/lib32
Slurm Job ID is: 30556385
Slurm Job name is: 11278
ncm0971

                                 *****************
                                 * O   R   C   A *
                                 *****************

                                            #,                                       
                                            ###                                      
                                            ####                                     
                                            #####                                    
                                            ######                                   
                                           ########,                                 
                                     ,,################,,,,,                         
                               ,,#################################,,                 
                          ,,##########################################,,             
                       ,#########################################, ''#####,          
                    ,#############################################,,   '####,        
                  ,##################################################,,,,####,       
                ,###########''''           ''''###############################       
              ,#####''   ,,,,##########,,,,          '''####'''          '####       
            ,##' ,,,,###########################,,,                        '##       
           ' ,,###''''                  '''############,,,                           
         ,,##''                                '''############,,,,        ,,,,,,###''
      ,#''                                            '''#######################'''  
     '                                                          ''''####''''         
             ,#######,   #######,   ,#######,      ##                                
            ,#'     '#,  ##    ##  ,#'     '#,    #''#        ######   ,####,        
            ##       ##  ##   ,#'  ##            #'  '#       #        #'  '#        
            ##       ##  #######   ##           ,######,      #####,   #    #        
            '#,     ,#'  ##    ##  '#,     ,#' ,#      #,         ##   #,  ,#        
             '#######'   ##     ##  '#######'  #'      '#     #####' # '####'        



                  #######################################################
                  #                        -***-                        #
                  #          Department of theory and spectroscopy      #
                  #    Directorship and core code : Frank Neese         #
                  #        Max Planck Institute fuer Kohlenforschung    #
                  #                Kaiser Wilhelm Platz 1               #
                  #                 D-45470 Muelheim/Ruhr               #
                  #                      Germany                        #
                  #                                                     #
                  #                  All rights reserved                #
                  #                        -***-                        #
                  #######################################################


                         Program Version 5.0.3 -  RELEASE  -


 With contributions from (in alphabetic order):
   Daniel Aravena         : Magnetic Suceptibility
   Michael Atanasov       : Ab Initio Ligand Field Theory (pilot matlab implementation)
   Alexander A. Auer      : GIAO ZORA, VPT2 properties, NMR spectrum
   Ute Becker             : Parallelization
   Giovanni Bistoni       : ED, misc. LED, open-shell LED, HFLD
   Martin Brehm           : Molecular dynamics
   Dmytro Bykov           : SCF Hessian
   Vijay G. Chilkuri      : MRCI spin determinant printing, contributions to CSF-ICE
   Dipayan Datta          : RHF DLPNO-CCSD density
   Achintya Kumar Dutta   : EOM-CC, STEOM-CC
   Dmitry Ganyushin       : Spin-Orbit,Spin-Spin,Magnetic field MRCI
   Miquel Garcia          : C-PCM and meta-GGA Hessian, CC/C-PCM, Gaussian charge scheme
   Yang Guo               : DLPNO-NEVPT2, F12-NEVPT2, CIM, IAO-localization
   Andreas Hansen         : Spin unrestricted coupled pair/coupled cluster methods
   Benjamin Helmich-Paris : MC-RPA, TRAH-SCF, COSX integrals
   Lee Huntington         : MR-EOM, pCC
   Robert Izsak           : Overlap fitted RIJCOSX, COSX-SCS-MP3, EOM
   Marcus Kettner         : VPT2
   Christian Kollmar      : KDIIS, OOCD, Brueckner-CCSD(T), CCSD density, CASPT2, CASPT2-K
   Simone Kossmann        : Meta GGA functionals, TD-DFT gradient, OOMP2, MP2 Hessian
   Martin Krupicka        : Initial AUTO-CI
   Lucas Lang             : DCDCAS
   Marvin Lechner         : AUTO-CI (C++ implementation), FIC-MRCC
   Dagmar Lenk            : GEPOL surface, SMD
   Dimitrios Liakos       : Extrapolation schemes; Compound Job, initial MDCI parallelization
   Dimitrios Manganas     : Further ROCIS development; embedding schemes
   Dimitrios Pantazis     : SARC Basis sets
   Anastasios Papadopoulos: AUTO-CI, single reference methods and gradients
   Taras Petrenko         : DFT Hessian,TD-DFT gradient, ASA, ECA, R-Raman, ABS, FL, XAS/XES, NRVS
   Peter Pinski           : DLPNO-MP2, DLPNO-MP2 Gradient
   Christoph Reimann      : Effective Core Potentials
   Marius Retegan         : Local ZFS, SOC
   Christoph Riplinger    : Optimizer, TS searches, QM/MM, DLPNO-CCSD(T), (RO)-DLPNO pert. Triples
   Tobias Risthaus        : Range-separated hybrids, TD-DFT gradient, RPA, STAB
   Michael Roemelt        : Original ROCIS implementation
   Masaaki Saitow         : Open-shell DLPNO-CCSD energy and density
   Barbara Sandhoefer     : DKH picture change effects
   Avijit Sen             : IP-ROCIS
   Kantharuban Sivalingam : CASSCF convergence, NEVPT2, FIC-MRCI
   Bernardo de Souza      : ESD, SOC TD-DFT
   Georgi Stoychev        : AutoAux, RI-MP2 NMR, DLPNO-MP2 response
   Willem Van den Heuvel  : Paramagnetic NMR
   Boris Wezisla          : Elementary symmetry handling
   Frank Wennmohs         : Technical directorship


 We gratefully acknowledge several colleagues who have allowed us to
 interface, adapt or use parts of their codes:
   Stefan Grimme, W. Hujo, H. Kruse, P. Pracht,  : VdW corrections, initial TS optimization,
                  C. Bannwarth, S. Ehlert          DFT functionals, gCP, sTDA/sTD-DF
   Ed Valeev, F. Pavosevic, A. Kumar             : LibInt (2-el integral package), F12 methods
   Garnet Chan, S. Sharma, J. Yang, R. Olivares  : DMRG
   Ulf Ekstrom                                   : XCFun DFT Library
   Mihaly Kallay                                 : mrcc  (arbitrary order and MRCC methods)
   Jiri Pittner, Ondrej Demel                    : Mk-CCSD
   Frank Weinhold                                : gennbo (NPA and NBO analysis)
   Christopher J. Cramer and Donald G. Truhlar   : smd solvation model
   Lars Goerigk                                  : TD-DFT with DH, B97 family of functionals
   V. Asgeirsson, H. Jonsson                     : NEB implementation
   FAccTs GmbH                                   : IRC, NEB, NEB-TS, DLPNO-Multilevel, CI-OPT
                                                   MM, QMMM, 2- and 3-layer-ONIOM, Crystal-QMMM,
                                                   LR-CPCM, SF, NACMEs, symmetry and pop. for TD-DFT,
                                                   nearIR, NL-DFT gradient (VV10), updates on ESD,
                                                   ML-optimized integration grids
   S Lehtola, MJT Oliveira, MAL Marques          : LibXC Library
   Liviu Ungur et al                             : ANISO software


 Your calculation uses the libint2 library for the computation of 2-el integrals
 For citations please refer to: http://libint.valeyev.net

 Your ORCA version has been built with support for libXC version: 5.1.0
 For citations please refer to: https://tddft.org/programs/libxc/

 This ORCA versions uses:
   CBLAS   interface :  Fast vector & matrix operations
   LAPACKE interface :  Fast linear algebra routines
   SCALAPACK package :  Parallel linear algebra routines
   Shared memory     :  Shared parallel matrices
   BLAS/LAPACK       :  OpenBLAS 0.3.15  USE64BITINT DYNAMIC_ARCH NO_AFFINITY SkylakeX SINGLE_THREADED
        Core in use  :  SkylakeX
   Copyright (c) 2011-2014, The OpenBLAS Project


================================================================================

----- Orbital basis set information -----
Your calculation utilizes the basis: EPR-III
   V. Barone, in Recent Advances in Density Functional Methods, Part 1 (ed. D. P. Chong), World Scientific, Singapore, 1995, p. 287.
   N. Rega, M. Cossi and V. Barone, J. Chem. Phys. 105, 11060 (1996).

----- AuxJ basis set information -----
Your calculation utilizes the AutoAux generation procedure.
  G. L. Stoychev, A. A. Auer, F. Neese, J. Chem. Theory Comput. 13, 554 (2017)

----- AuxC basis set information -----
Your calculation utilizes the AutoAux generation procedure.
  G. L. Stoychev, A. A. Auer, F. Neese, J. Chem. Theory Comput. 13, 554 (2017)

----- AuxJK basis set information -----
Your calculation utilizes the AutoAux generation procedure.
  G. L. Stoychev, A. A. Auer, F. Neese, J. Chem. Theory Comput. 13, 554 (2017)

================================================================================
                                        WARNINGS
                       Please study these warnings very carefully!
================================================================================


WARNING: your system is open-shell and RHF/RKS was chosen
  ===> : WILL SWITCH to UHF/UKS


INFO   : the flag for use of the SHARK integral package has been found!

================================================================================
                                       INPUT FILE
================================================================================
NAME = /home/rwth0701/scratch/cs681498/orcajob__30556385-5hHX/11278.inp
|  1> !B3LYP EPR-III Autoaux
|  2> !PAL4
|  3> 
|  4> * xyz 0 2
|  5>  C    -46.0229115977    -66.7788738258    -22.1630811746
|  6>  H    -47.1250131941    -66.8028216399    -22.1920845114
|  7>  H    -45.6877839321    -67.6973627000    -22.3568476578
|  8>  H    -45.4596090310    -65.8163032355    -22.0382333391
|  9> *
| 10> 
| 11> %EPRNMR
| 12>         GTENSOR   TRUE
| 13>         NUCLEI    = ALL H {AISO, ADIP, AORB}
| 14>         NUCLEI    = ALL C {AISO, ADIP, AORB}
| 15> END
| 16> 
| 17> 
| 18>                          ****END OF INPUT****
================================================================================

                       ****************************
                       * Single Point Calculation *
                       ****************************

---------------------------------
CARTESIAN COORDINATES (ANGSTROEM)
---------------------------------
  C    -46.022912  -66.778874  -22.163081
  H    -47.125013  -66.802822  -22.192085
  H    -45.687784  -67.697363  -22.356848
  H    -45.459609  -65.816303  -22.038233

----------------------------
CARTESIAN COORDINATES (A.U.)
----------------------------
  NO LB      ZA    FRAG     MASS         X           Y           Z
   0 C     6.0000    0    12.011  -86.970699  -126.193783  -41.882154
   1 H     1.0000    0     1.008  -89.053369  -126.239038  -41.936962
   2 H     1.0000    0     1.008  -86.337399  -127.929475  -42.248319
   3 H     1.0000    0     1.008  -85.906211  -124.374788  -41.646225

--------------------------------
INTERNAL COORDINATES (ANGSTROEM)
--------------------------------
 C      0   0   0     0.000000000000     0.00000000     0.00000000
 H      1   0   0     1.102743224932     0.00000000     0.00000000
 H      1   2   0     0.996733572371   108.11380954     0.00000000
 H      1   2   3     1.122247256620   121.54729210   174.26008132

---------------------------
INTERNAL COORDINATES (A.U.)
---------------------------
 C      0   0   0     0.000000000000     0.00000000     0.00000000
 H      1   0   0     2.083882691158     0.00000000     0.00000000
 H      1   2   0     1.883553480266   108.11380954     0.00000000
 H      1   2   3     2.120739969556   121.54729210   174.26008132

---------------------
BASIS SET INFORMATION
---------------------
There are 2 groups of distinct atoms

 Group   1 Type C   : 12s8p2d1f contracted to 8s5p2d1f pattern {51111111/41111/11/1}
 Group   2 Type H   : 7s2p contracted to 5s2p pattern {31111/11}

Atom   0C    basis set group =>   1
Atom   1H    basis set group =>   2
Atom   2H    basis set group =>   2
Atom   3H    basis set group =>   2
---------------------------------
AUXILIARY/J BASIS SET INFORMATION
---------------------------------
There are 2 groups of distinct atoms

 Group   1 Type C   : 20s17p16d8f3g contracted to 20s17p16d8f3g pattern {11111111111111111111/11111111111111111/1111111111111111/11111111/111}
 Group   2 Type H   : 17s7p3d contracted to 17s7p3d pattern {11111111111111111/1111111/111}

Atom   0C    basis set group =>   1
Atom   1H    basis set group =>   2
Atom   2H    basis set group =>   2
Atom   3H    basis set group =>   2
---------------------------------
AUXILIARY/C BASIS SET INFORMATION
---------------------------------
There are 2 groups of distinct atoms

 Group   1 Type C   : 20s17p16d8f3g contracted to 20s17p16d8f3g pattern {11111111111111111111/11111111111111111/1111111111111111/11111111/111}
 Group   2 Type H   : 17s7p3d contracted to 17s7p3d pattern {11111111111111111/1111111/111}

Atom   0C    basis set group =>   1
Atom   1H    basis set group =>   2
Atom   2H    basis set group =>   2
Atom   3H    basis set group =>   2
----------------------------------
AUXILIARY/JK BASIS SET INFORMATION
----------------------------------
There are 2 groups of distinct atoms

 Group   1 Type C   : 20s17p16d8f3g contracted to 20s17p16d8f3g pattern {11111111111111111111/11111111111111111/1111111111111111/11111111/111}
 Group   2 Type H   : 17s7p3d contracted to 17s7p3d pattern {11111111111111111/1111111/111}

Atom   0C    basis set group =>   1
Atom   1H    basis set group =>   2
Atom   2H    basis set group =>   2
Atom   3H    basis set group =>   2


           ************************************************************
           *        Program running with 4 parallel MPI-processes     *
           *              working on a common directory               *
           ************************************************************
------------------------------------------------------------------------------
                           ORCA GTO INTEGRAL CALCULATION
                           -- RI-GTO INTEGRALS CHOSEN --
------------------------------------------------------------------------------
------------------------------------------------------------------------------
                   ___                                                        
                  /   \      - P O W E R E D   B Y -                         
                 /     \                                                     
                 |  |  |   _    _      __       _____    __    __             
                 |  |  |  | |  | |    /  \     |  _  \  |  |  /  |          
                  \  \/   | |  | |   /    \    | | | |  |  | /  /          
                 / \  \   | |__| |  /  /\  \   | |_| |  |  |/  /          
                |  |  |   |  __  | /  /__\  \  |    /   |      \           
                |  |  |   | |  | | |   __   |  |    \   |  |\   \          
                \     /   | |  | | |  |  |  |  | |\  \  |  | \   \       
                 \___/    |_|  |_| |__|  |__|  |_| \__\ |__|  \__/        
                                                                              
                      - O R C A' S   B I G   F R I E N D -                    
                                      &                                       
                       - I N T E G R A L  F E E D E R -                       
                                                                              
 v1 FN, 2020, v2 2021                                                         
------------------------------------------------------------------------------


Reading SHARK input file /home/rwth0701/scratch/cs681498/orcajob__30556385-5hHX/11278.SHARKINP.tmp ... ok
----------------------
SHARK INTEGRAL PACKAGE
----------------------

Number of atoms                             ...      4
Number of basis functions                   ...     73
Number of shells                            ...     37
Maximum angular momentum                    ...      3
Integral batch strategy                     ... SHARK/LIBINT Hybrid
RI-J (if used) integral strategy            ... SPLIT-RIJ (Revised 2003 algorithm where possible)
Printlevel                                  ...      1
Contraction scheme used                     ... SEGMENTED contraction
Coulomb Range Separation                    ... NOT USED
Exchange Range Separation                   ... NOT USED
Finite Nucleus Model                        ... NOT USED
Auxiliary Coulomb fitting basis             ... AVAILABLE
   # of basis functions in Aux-J            ...    393
   # of shells in Aux-J                     ...    145
   Maximum angular momentum in Aux-J        ...      4
Auxiliary J/K fitting basis                 ... AVAILABLE
   # of basis functions in Aux-JK           ...    393
   # of shells in Aux-JK                    ...    145
   Maximum angular momentum in Aux-JK       ...      4
Auxiliary Correlation fitting basis         ... AVAILABLE
   # of basis functions in Aux-C            ...    393
   # of shells in Aux-C                     ...    145
   Maximum angular momentum in Aux-C        ...      4
Auxiliary 'external' fitting basis          ... NOT available
Integral threshold                          ...     1.000000e-10
Primitive cut-off                           ...     1.000000e-11
Primitive pair pre-selection threshold      ...     1.000000e-11

Calculating pre-screening integrals         ... done (  0.0 sec) Dimension = 37
Organizing shell pair data                  ... done (  0.0 sec)
Shell pair information
Total number of shell pairs                 ...       703
Shell pairs after pre-screening             ...       688
Total number of primitive shell pairs       ...      1300
Primitive shell pairs kept                  ...      1184
          la=0 lb=0:    261 shell pairs
          la=1 lb=0:    253 shell pairs
          la=1 lb=1:     66 shell pairs
          la=2 lb=0:     46 shell pairs
          la=2 lb=1:     22 shell pairs
          la=2 lb=2:      3 shell pairs
          la=3 lb=0:     23 shell pairs
          la=3 lb=1:     11 shell pairs
          la=3 lb=2:      2 shell pairs
          la=3 lb=3:      1 shell pairs

Calculating one electron integrals          ... done (  0.0 sec)
Calculating RI/J V-Matrix + Cholesky decomp.... done (  0.0 sec)
Calculating RI/JK V-Matrix + Cholesky decomp... done (  0.0 sec)
Calculating RI/C V-Matrix + Cholesky decomp.... done (  0.0 sec)
Calculating Nuclear repulsion               ... done (  0.0 sec) ENN=      9.752959608483 Eh

SHARK setup successfully completed in   0.4 seconds

Maximum memory used throughout the entire GTOINT-calculation: 13.7 MB


           ************************************************************
           *        Program running with 4 parallel MPI-processes     *
           *              working on a common directory               *
           ************************************************************
-------------------------------------------------------------------------------
                                 ORCA SCF
-------------------------------------------------------------------------------

------------
SCF SETTINGS
------------
Hamiltonian:
 Density Functional     Method          .... DFT(GTOs)
 Exchange Functional    Exchange        .... B88
   X-Alpha parameter    XAlpha          ....  0.666667
   Becke's b parameter  XBeta           ....  0.004200
 Correlation Functional Correlation     .... LYP
 LDA part of GGA corr.  LDAOpt          .... VWN-5
 Gradients option       PostSCFGGA      .... off
 Hybrid DFT is turned on
   Fraction HF Exchange ScalHFX         ....  0.200000
   Scaling of DF-GGA-X  ScalDFX         ....  0.720000
   Scaling of DF-GGA-C  ScalDFC         ....  0.810000
   Scaling of DF-LDA-C  ScalLDAC        ....  1.000000
   Perturbative correction              ....  0.000000
   Density functional embedding theory  .... OFF
   NL short-range parameter             ....  4.800000
 RI-approximation to the Coulomb term is turned on
   Number of AuxJ basis functions       .... 393
   RIJ-COSX (HFX calculated with COS-X)).... on


General Settings:
 Integral files         IntName         .... /home/rwth0701/scratch/cs681498/orcajob__30556385-5hHX/11278
 Hartree-Fock type      HFTyp           .... UHF
 Total Charge           Charge          ....    0
 Multiplicity           Mult            ....    2
 Number of Electrons    NEL             ....    9
 Basis Dimension        Dim             ....   73
 Nuclear Repulsion      ENuc            ....      9.7529596085 Eh

Convergence Acceleration:
 DIIS                   CNVDIIS         .... on
   Start iteration      DIISMaxIt       ....    12
   Startup error        DIISStart       ....  0.200000
   # of expansion vecs  DIISMaxEq       ....     5
   Bias factor          DIISBfac        ....   1.050
   Max. coefficient     DIISMaxC        ....  10.000
 Trust-Rad. Augm. Hess. CNVTRAH         .... auto
   Auto Start mean grad. ratio tolernc. ....  1.125000
   Auto Start start iteration           ....    20
   Auto Start num. interpolation iter.  ....    10
   Max. Number of Micro iterations      ....    16
   Max. Number of Macro iterations      .... Maxiter - #DIIS iter
   Number of Davidson start vectors     ....     2
   Converg. threshold I  (grad. norm)   ....   5.000e-05
   Converg. threshold II (energy diff.) ....   1.000e-06
   Grad. Scal. Fac. for Micro threshold ....   0.100
   Minimum threshold for Micro iter.    ....   0.010
   NR start threshold (gradient norm)   ....   0.001
   Initial trust radius                 ....   0.400
   Minimum AH scaling param. (alpha)    ....   1.000
   Maximum AH scaling param. (alpha)    .... 1000.000
   Orbital update algorithm             .... Taylor
   White noise on init. David. guess    .... on
   Maximum white noise                  ....   0.010
   Quad. conv. algorithm                .... NR
 SOSCF                  CNVSOSCF        .... off
 Level Shifting         CNVShift        .... on
   Level shift para.    LevelShift      ....    0.2500
   Turn off err/grad.   ShiftErr        ....    0.0010
 Zerner damping         CNVZerner       .... off
 Static damping         CNVDamp         .... on
   Fraction old density DampFac         ....    0.7000
   Max. Damping (<1)    DampMax         ....    0.9800
   Min. Damping (>=0)   DampMin         ....    0.0000
   Turn off err/grad.   DampErr         ....    0.1000
 Fernandez-Rico         CNVRico         .... off

SCF Procedure:
 Maximum # iterations   MaxIter         ....   125
 SCF integral mode      SCFMode         .... Direct
   Integral package                     .... SHARK and LIBINT hybrid scheme
 Reset frequency        DirectResetFreq ....    20
 Integral Threshold     Thresh          ....  1.000e-10 Eh
 Primitive CutOff       TCut            ....  1.000e-11 Eh

Convergence Tolerance:
 Convergence Check Mode ConvCheckMode   .... Total+1el-Energy
 Convergence forced     ConvForced      .... 0
 Energy Change          TolE            ....  1.000e-06 Eh
 1-El. energy change                    ....  1.000e-03 Eh
 DIIS Error             TolErr          ....  1.000e-06


Diagonalization of the overlap matrix:
Smallest eigenvalue                        ... 1.483e-03
Time for diagonalization                   ...    0.002 sec
Threshold for overlap eigenvalues          ... 1.000e-08
Number of eigenvalues below threshold      ... 0
Time for construction of square roots      ...    0.017 sec
Total time needed                          ...    0.019 sec

Time for model grid setup =    0.070 sec

------------------------------
INITIAL GUESS: MODEL POTENTIAL
------------------------------
Loading Hartree-Fock densities                     ... done
Calculating cut-offs                               ... done
Initializing the effective Hamiltonian             ... done
Setting up the integral package (SHARK)            ... done
Starting the Coulomb interaction                   ... done (   0.0 sec)
Reading the grid                                   ... done
Mapping shells                                     ... done
Starting the XC term evaluation                    ... done (   0.0 sec)
  promolecular density results
     # of electrons  =      8.998404151
     EX              =     -5.974662351
     EC              =     -0.260604340
     EX+EC           =     -6.235266691
Transforming the Hamiltonian                       ... done (   0.0 sec)
Diagonalizing the Hamiltonian                      ... done (   0.0 sec)
Back transforming the eigenvectors                 ... done (   0.0 sec)
Now organizing SCF variables                       ... done
                      ------------------
                      INITIAL GUESS DONE (   0.1 sec)
                      ------------------
-------------------
DFT GRID GENERATION
-------------------

General Integration Accuracy     IntAcc      ... 4.388
Radial Grid Type                 RadialGrid  ... OptM3 with GC (2021)
Angular Grid (max. ang.)         AngularGrid ... 4 (Lebedev-302)
Angular grid pruning method      GridPruning ... 4 (adaptive)
Weight generation scheme         WeightScheme... Becke
Basis function cutoff            BFCut       ... 1.0000e-10
Integration weight cutoff        WCut        ... 1.0000e-14
Angular grids for H and He will be reduced by one unit
Partially contracted basis set               ... off
Rotationally invariant grid construction     ... off

Total number of grid points                  ...    17037
Total number of batches                      ...      269
Average number of points per batch           ...       63
Average number of grid points per atom       ...     4259
Time for grid setup =    0.144 sec

--------------------
COSX GRID GENERATION
--------------------

GRIDX 1
-------
General Integration Accuracy     IntAcc      ... 3.816
Radial Grid Type                 RadialGrid  ... OptM3 with GC (2021)
Angular Grid (max. ang.)         AngularGrid ... 1 (Lebedev-50)
Angular grid pruning method      GridPruning ... 4 (adaptive)
Weight generation scheme         WeightScheme... Becke
Basis function cutoff            BFCut       ... 1.0000e-10
Integration weight cutoff        WCut        ... 1.0000e-14
Angular grids for H and He will be reduced by one unit
Partially contracted basis set               ... on
Rotationally invariant grid construction     ... off

Total number of grid points                  ...     2141
Total number of batches                      ...       35
Average number of points per batch           ...       61
Average number of grid points per atom       ...      535
UseSFitting                                  ... on

GRIDX 2
-------
General Integration Accuracy     IntAcc      ... 4.020
Radial Grid Type                 RadialGrid  ... OptM3 with GC (2021)
Angular Grid (max. ang.)         AngularGrid ... 2 (Lebedev-110)
Angular grid pruning method      GridPruning ... 4 (adaptive)
Weight generation scheme         WeightScheme... Becke
Basis function cutoff            BFCut       ... 1.0000e-10
Integration weight cutoff        WCut        ... 1.0000e-14
Angular grids for H and He will be reduced by one unit
Partially contracted basis set               ... on
Rotationally invariant grid construction     ... off

Total number of grid points                  ...     5041
Total number of batches                      ...       81
Average number of points per batch           ...       62
Average number of grid points per atom       ...     1260
UseSFitting                                  ... on

GRIDX 3
-------
General Integration Accuracy     IntAcc      ... 4.338
Radial Grid Type                 RadialGrid  ... OptM3 with GC (2021)
Angular Grid (max. ang.)         AngularGrid ... 3 (Lebedev-194)
Angular grid pruning method      GridPruning ... 4 (adaptive)
Weight generation scheme         WeightScheme... Becke
Basis function cutoff            BFCut       ... 1.0000e-10
Integration weight cutoff        WCut        ... 1.0000e-14
Angular grids for H and He will be reduced by one unit
Partially contracted basis set               ... on
Rotationally invariant grid construction     ... off

Total number of grid points                  ...    11718
Total number of batches                      ...      185
Average number of points per batch           ...       63
Average number of grid points per atom       ...     2930
UseSFitting                                  ... on

Time for X-Grid setup             =    0.259 sec

--------------
SCF ITERATIONS
--------------
ITER       Energy         Delta-E        Max-DP      RMS-DP      [F,P]     Damp
               ***  Starting incremental Fock matrix formation  ***
  0    -39.7732049188   0.000000000000 0.01577916  0.00051550  0.0932436 0.7000
  1    -39.7933720731  -0.020167154269 0.00986984  0.00038403  0.0491929 0.7000
                               ***Turning on DIIS***
  2    -39.8023276296  -0.008955556552 0.01581290  0.00066906  0.0201872 0.0000
  3    -39.8145363576  -0.012208728012 0.00874235  0.00028977  0.0291461 0.0000
  4    -39.8182422707  -0.003705913121 0.00304244  0.00008092  0.0059773 0.0000
  5    -39.8183942273  -0.000151956564 0.00108754  0.00003336  0.0019743 0.0000
  6    -39.8184124408  -0.000018213510 0.00088376  0.00002543  0.0008138 0.0000
               *** Restarting incremental Fock matrix formation ***
                                   *** Resetting DIIS ***
  7    -39.8184079416   0.000004499231 0.00008946  0.00000321  0.0000942 0.0000
                 **** Energy Check signals convergence ****

               *****************************************************
               *                     SUCCESS                       *
               *           SCF CONVERGED AFTER   8 CYCLES          *
               *****************************************************

Old exchange energy                            =     -1.242939390 Eh
New exchange energy                            =     -1.242936817 Eh
Exchange energy change after final integration =      0.000002573 Eh
Total energy after final integration           =    -39.818405469 Eh
Final COS-X integration done in                =     0.180 sec

----------------
TOTAL SCF ENERGY
----------------

Total Energy       :          -39.81840547 Eh           -1083.51390 eV

Components:
Nuclear Repulsion  :            9.75295961 Eh             265.39152 eV
Electronic Energy  :          -49.57136508 Eh           -1348.90542 eV
One Electron Energy:          -71.78033966 Eh           -1953.24234 eV
Two Electron Energy:           22.20897459 Eh             604.33692 eV
Max COSX asymmetry :            0.00000005 Eh               0.00000 eV

Virial components:
Potential Energy   :          -79.48484530 Eh           -2162.89260 eV
Kinetic Energy     :           39.66643983 Eh            1079.37870 eV
Virial Ratio       :            2.00383109


DFT components:
N(Alpha)           :        4.999999869519 electrons
N(Beta)            :        4.000000360795 electrons
N(Total)           :        9.000000230314 electrons
E(X)               :       -4.919424906353 Eh       
E(C)               :       -0.310038662279 Eh       
E(XC)              :       -5.229463568633 Eh       
DFET-embed. en.    :        0.000000000000 Eh       

---------------
SCF CONVERGENCE
---------------

  Last Energy change         ...   -1.0001e-07  Tolerance :   1.0000e-06
  Last MAX-Density change    ...    0.0000e+00  Tolerance :   1.0000e-05
  Last RMS-Density change    ...    0.0000e+00  Tolerance :   1.0000e-06
  Last DIIS Error            ...    6.3424e-05  Tolerance :   1.0000e-06

             **** THE GBW FILE WAS UPDATED (/home/rwth0701/scratch/cs681498/orcajob__30556385-5hHX/11278.gbw) ****
             **** DENSITY /home/rwth0701/scratch/cs681498/orcajob__30556385-5hHX/11278.scfp WAS UPDATED ****
             **** ENERGY FILE WAS UPDATED (/home/rwth0701/scratch/cs681498/orcajob__30556385-5hHX/11278.en.tmp) ****
----------------------
UHF SPIN CONTAMINATION
----------------------

Warning: in a DFT calculation there is little theoretical justification to 
         calculate <S**2> as in Hartree-Fock theory. We will do it anyways
         but you should keep in mind that the values have only limited relevance

Expectation value of <S**2>     :     0.753627
Ideal value S*(S+1) for S=0.5   :     0.750000
Deviation                       :     0.003627

             **** THE GBW FILE WAS UPDATED (/home/rwth0701/scratch/cs681498/orcajob__30556385-5hHX/11278.gbw) ****
             **** DENSITY /home/rwth0701/scratch/cs681498/orcajob__30556385-5hHX/11278.scfp WAS UPDATED ****
----------------
ORBITAL ENERGIES
----------------
                 SPIN UP ORBITALS
  NO   OCC          E(Eh)            E(eV) 
   0   1.0000     -10.182023      -277.0669 
   1   1.0000      -0.692404       -18.8413 
   2   1.0000      -0.440715       -11.9925 
   3   1.0000      -0.405284       -11.0283 
   4   1.0000      -0.235241        -6.4012 
   5   0.0000       0.000850         0.0231 
   6   0.0000       0.034748         0.9455 
   7   0.0000       0.038541         1.0488 
   8   0.0000       0.047482         1.2920 
   9   0.0000       0.083698         2.2776 
  10   0.0000       0.089505         2.4355 
  11   0.0000       0.105961         2.8833 
  12   0.0000       0.217857         5.9282 
  13   0.0000       0.226164         6.1542 
  14   0.0000       0.245316         6.6754 
  15   0.0000       0.276290         7.5182 
  16   0.0000       0.296841         8.0775 
  17   0.0000       0.310715         8.4550 
  18   0.0000       0.365103         9.9350 
  19   0.0000       0.545536        14.8448 
  20   0.0000       0.574396        15.6301 
  21   0.0000       0.727052        19.7841 
  22   0.0000       0.745564        20.2878 
  23   0.0000       0.768266        20.9056 
  24   0.0000       0.825553        22.4644 
  25   0.0000       0.868882        23.6435 
  26   0.0000       0.930469        25.3194 
  27   0.0000       0.948338        25.8056 
  28   0.0000       0.963540        26.2193 
  29   0.0000       1.047971        28.5167 
  30   0.0000       1.065760        29.0008 
  31   0.0000       1.134928        30.8830 
  32   0.0000       1.171213        31.8703 
  33   0.0000       1.177866        32.0514 
  34   0.0000       1.442720        39.2584 
  35   0.0000       1.480858        40.2962 
  36   0.0000       1.498497        40.7762 
  37   0.0000       1.699807        46.2541 
  38   0.0000       1.761652        47.9370 
  39   0.0000       1.792556        48.7779 
  40   0.0000       2.713166        73.8290 
  41   0.0000       2.737759        74.4982 
  42   0.0000       2.881200        78.4014 
  43   0.0000       2.885552        78.5199 
  44   0.0000       2.918558        79.4180 
  45   0.0000       2.984851        81.2219 
  46   0.0000       3.010857        81.9296 
  47   0.0000       3.141475        85.4839 
  48   0.0000       3.178490        86.4911 
  49   0.0000       3.252688        88.5101 
  50   0.0000       3.261623        88.7533 
  51   0.0000       3.654496        99.4439 
  52   0.0000       3.719592       101.2153 
  53   0.0000       3.810156       103.6796 
  54   0.0000       3.938838       107.1812 
  55   0.0000       3.958939       107.7282 
  56   0.0000       4.054385       110.3254 
  57   0.0000       4.169957       113.4703 
  58   0.0000       4.230970       115.1305 
  59   0.0000       4.254755       115.7778 
  60   0.0000       4.593826       125.0044 
  61   0.0000       5.054308       137.5347 
  62   0.0000       5.277027       143.5952 
  63   0.0000       5.524003       150.3158 
  64   0.0000       5.675453       154.4369 
  65   0.0000       6.046450       164.5323 
  66   0.0000       6.159472       167.6077 
  67   0.0000       7.791062       212.0056 
  68   0.0000      29.093574       791.6764 
  69   0.0000      37.123185      1010.1732 
  70   0.0000      37.203925      1012.3703 
  71   0.0000      37.292549      1014.7818 
  72   0.0000     133.556182      3634.2485 

                 SPIN DOWN ORBITALS
  NO   OCC          E(Eh)            E(eV) 
   0   1.0000     -10.167597      -276.6744 
   1   1.0000      -0.653296       -17.7771 
   2   1.0000      -0.431075       -11.7302 
   3   1.0000      -0.395531       -10.7629 
   4   0.0000      -0.077661        -2.1133 
   5   0.0000       0.003960         0.1078 
   6   0.0000       0.034467         0.9379 
   7   0.0000       0.038110         1.0370 
   8   0.0000       0.060694         1.6516 
   9   0.0000       0.086800         2.3619 
  10   0.0000       0.091183         2.4812 
  11   0.0000       0.107838         2.9344 
  12   0.0000       0.219331         5.9683 
  13   0.0000       0.227700         6.1960 
  14   0.0000       0.263376         7.1668 
  15   0.0000       0.302499         8.2314 
  16   0.0000       0.310520         8.4497 
  17   0.0000       0.318923         8.6783 
  18   0.0000       0.375983        10.2310 
  19   0.0000       0.571453        15.5500 
  20   0.0000       0.602836        16.4040 
  21   0.0000       0.729642        19.8546 
  22   0.0000       0.747164        20.3314 
  23   0.0000       0.792038        21.5524 
  24   0.0000       0.824134        22.4258 
  25   0.0000       0.877348        23.8739 
  26   0.0000       0.940460        25.5912 
  27   0.0000       0.959426        26.1073 
  28   0.0000       0.981074        26.6964 
  29   0.0000       1.073152        29.2019 
  30   0.0000       1.121230        30.5102 
  31   0.0000       1.155923        31.4543 
  32   0.0000       1.183006        32.1912 
  33   0.0000       1.192883        32.4600 
  34   0.0000       1.454931        39.5907 
  35   0.0000       1.495015        40.6814 
  36   0.0000       1.510618        41.1060 
  37   0.0000       1.707273        46.4573 
  38   0.0000       1.768689        48.1285 
  39   0.0000       1.799882        48.9773 
  40   0.0000       2.754112        74.9432 
  41   0.0000       2.778475        75.6061 
  42   0.0000       2.887665        78.5774 
  43   0.0000       2.898825        78.8810 
  44   0.0000       2.975904        80.9785 
  45   0.0000       3.018937        82.1495 
  46   0.0000       3.046703        82.9050 
  47   0.0000       3.193973        86.9124 
  48   0.0000       3.227517        87.8252 
  49   0.0000       3.306834        89.9835 
  50   0.0000       3.318804        90.3093 
  51   0.0000       3.656396        99.4956 
  52   0.0000       3.779754       102.8523 
  53   0.0000       3.808076       103.6230 
  54   0.0000       3.951164       107.5166 
  55   0.0000       3.962349       107.8210 
  56   0.0000       4.075426       110.8980 
  57   0.0000       4.174049       113.5817 
  58   0.0000       4.253889       115.7542 
  59   0.0000       4.257475       115.8518 
  60   0.0000       4.594650       125.0268 
  61   0.0000       5.075132       138.1014 
  62   0.0000       5.276009       143.5675 
  63   0.0000       5.520809       150.2288 
  64   0.0000       5.674181       154.4023 
  65   0.0000       6.049377       164.6119 
  66   0.0000       6.163969       167.7301 
  67   0.0000       7.826389       212.9669 
  68   0.0000      29.120437       792.4074 
  69   0.0000      37.110978      1009.8411 
  70   0.0000      37.191423      1012.0301 
  71   0.0000      37.282297      1014.5029 
  72   0.0000     133.564051      3634.4626 

                    ********************************
                    * MULLIKEN POPULATION ANALYSIS *
                    ********************************

--------------------------------------------
MULLIKEN ATOMIC CHARGES AND SPIN POPULATIONS
--------------------------------------------
   0 C :   -0.431851    1.103348
   1 H :    0.131116   -0.036775
   2 H :    0.150721   -0.030464
   3 H :    0.150014   -0.036109
Sum of atomic charges         :   -0.0000000
Sum of atomic spin populations:    1.0000000

-----------------------------------------------------
MULLIKEN REDUCED ORBITAL CHARGES AND SPIN POPULATIONS
-----------------------------------------------------
CHARGE
  0 C s       :     3.325084  s :     3.325084
      pz      :     0.970037  p :     3.078602
      px      :     1.055700
      py      :     1.052865
      dz2     :     0.005251  d :     0.025039
      dxz     :     0.000222
      dyz     :     0.001113
      dx2y2   :     0.012012
      dxy     :     0.006440
      f0      :     0.000154  f :     0.003126
      f+1     :     0.000610
      f-1     :     0.000628
      f+2     :     0.000113
      f-2     :     0.000107
      f+3     :     0.001359
      f-3     :     0.000156
  1 H s       :     0.842975  s :     0.842975
      pz      :     0.009837  p :     0.025909
      px      :     0.009660
      py      :     0.006412
  2 H s       :     0.818106  s :     0.818106
      pz      :     0.012063  p :     0.031173
      px      :     0.008847
      py      :     0.010263
  3 H s       :     0.824102  s :     0.824102
      pz      :     0.010212  p :     0.025884
      px      :     0.006960
      py      :     0.008712

SPIN
  0 C s       :     0.068885  s :     0.068885
      pz      :     0.939491  p :     1.038807
      px      :     0.037544
      py      :     0.061772
      dz2     :    -0.004284  d :    -0.003011
      dxz     :     0.000007
      dyz     :    -0.000416
      dx2y2   :     0.001196
      dxy     :     0.000486
      f0      :    -0.000107  f :    -0.001333
      f+1     :    -0.000566
      f-1     :    -0.000517
      f+2     :    -0.000057
      f-2     :    -0.000042
      f+3     :    -0.000057
      f-3     :     0.000013
  1 H s       :    -0.046009  s :    -0.046009
      pz      :     0.009608  p :     0.009234
      px      :    -0.000199
      py      :    -0.000174
  2 H s       :    -0.041746  s :    -0.041746
      pz      :     0.011643  p :     0.011282
      px      :    -0.000653
      py      :     0.000292
  3 H s       :    -0.046230  s :    -0.046230
      pz      :     0.010045  p :     0.010122
      px      :    -0.000117
      py      :     0.000194


                     *******************************
                     * LOEWDIN POPULATION ANALYSIS *
                     *******************************

-------------------------------------------
LOEWDIN ATOMIC CHARGES AND SPIN POPULATIONS
-------------------------------------------
   0 C :   -0.140790    0.903856
   1 H :    0.061431    0.027372
   2 H :    0.005852    0.045339
   3 H :    0.073506    0.023433

----------------------------------------------------
LOEWDIN REDUCED ORBITAL CHARGES AND SPIN POPULATIONS
----------------------------------------------------
CHARGE
  0 C s       :     2.874547  s :     2.874547
      pz      :     0.877041  p :     3.167727
      px      :     1.146780
      py      :     1.143906
      dz2     :     0.006915  d :     0.090595
      dxz     :     0.000880
      dyz     :     0.002475
      dx2y2   :     0.049604
      dxy     :     0.030720
      f0      :     0.000533  f :     0.007920
      f+1     :     0.001669
      f-1     :     0.001670
      f+2     :     0.000348
      f-2     :     0.000206
      f+3     :     0.002949
      f-3     :     0.000545
  1 H s       :     0.799114  s :     0.799114
      pz      :     0.039743  p :     0.139454
      px      :     0.069071
      py      :     0.030641
  2 H s       :     0.816863  s :     0.816863
      pz      :     0.054826  p :     0.177285
      px      :     0.050261
      py      :     0.072197
  3 H s       :     0.795390  s :     0.795390
      pz      :     0.037601  p :     0.131104
      px      :     0.037690
      py      :     0.055812

SPIN
  0 C s       :     0.019517  s :     0.019517
      pz      :     0.843138  p :     0.893106
      px      :     0.013938
      py      :     0.036030
      dz2     :    -0.003704  d :    -0.007477
      dxz     :    -0.000043
      dyz     :    -0.000487
      dx2y2   :    -0.001996
      dxy     :    -0.001247
      f0      :     0.000059  f :    -0.001290
      f+1     :    -0.000522
      f-1     :    -0.000430
      f+2     :    -0.000061
      f-2     :    -0.000042
      f+3     :    -0.000276
      f-3     :    -0.000019
  1 H s       :    -0.017094  s :    -0.017094
      pz      :     0.038788  p :     0.044466
      px      :     0.004182
      py      :     0.001496
  2 H s       :    -0.013618  s :    -0.013618
      pz      :     0.052138  p :     0.058957
      px      :     0.000937
      py      :     0.005882
  3 H s       :    -0.019382  s :    -0.019382
      pz      :     0.036555  p :     0.042814
      px      :     0.001532
      py      :     0.004728


                      *****************************
                      * MAYER POPULATION ANALYSIS *
                      *****************************

  NA   - Mulliken gross atomic population
  ZA   - Total nuclear charge
  QA   - Mulliken gross atomic charge
  VA   - Mayer's total valence
  BVA  - Mayer's bonded valence
  FA   - Mayer's free valence

  ATOM       NA         ZA         QA         VA         BVA        FA
  0 C      6.4319     6.0000    -0.4319     3.8797     2.9355     0.9442
  1 H      0.8689     1.0000     0.1311     0.9820     0.9799     0.0021
  2 H      0.8493     1.0000     0.1507     0.9818     0.9800     0.0018
  3 H      0.8500     1.0000     0.1500     0.9873     0.9851     0.0022

  Mayer bond orders larger than 0.100000
B(  0-C ,  1-H ) :   0.9810 B(  0-C ,  2-H ) :   0.9788 B(  0-C ,  3-H ) :   0.9757 


-------
TIMINGS
-------

Total SCF time: 0 days 0 hours 0 min 5 sec 

Total time                  ....       5.609 sec
Sum of individual times     ....       4.930 sec  ( 87.9%)

Fock matrix formation       ....       4.246 sec  ( 75.7%)
  Split-RI-J                ....       0.373 sec  (  8.8% of F)
  Chain of spheres X        ....       0.917 sec  ( 21.6% of F)
  XC integration            ....       1.982 sec  ( 46.7% of F)
    Basis function eval.    ....       0.113 sec  (  5.7% of XC)
    Density eval.           ....       0.110 sec  (  5.6% of XC)
    XC-Functional eval.     ....       0.103 sec  (  5.2% of XC)
    XC-Potential eval.      ....       0.159 sec  (  8.0% of XC)
Diagonalization             ....       0.034 sec  (  0.6%)
Density matrix formation    ....       0.002 sec  (  0.0%)
Population analysis         ....       0.067 sec  (  1.2%)
Initial guess               ....       0.051 sec  (  0.9%)
Orbital Transformation      ....       0.000 sec  (  0.0%)
Orbital Orthonormalization  ....       0.000 sec  (  0.0%)
DIIS solution               ....       0.058 sec  (  1.0%)
Grid generation             ....       0.472 sec  (  8.4%)

Maximum memory used throughout the entire SCF-calculation: 59.0 MB

-------------------------   --------------------
FINAL SINGLE POINT ENERGY       -39.818405468715
-------------------------   --------------------

   --->>> g-tensor requested, so NeedSOC=true

                            ***************************************
                            *     ORCA property calculations      *
                            ***************************************

                                    ---------------------
                                    Active property flags
                                    ---------------------
   (+) Dipole Moment
   (+) g-tensor
   (+) Nuclear properties (Hyperfine,Quadrupole)
   (+) Spin-Orbit Integrals are needed


------------------------------------------------------------------------------
                       ORCA ELECTRIC PROPERTIES CALCULATION
------------------------------------------------------------------------------

Dipole Moment Calculation                       ... on
Quadrupole Moment Calculation                   ... off
Polarizability Calculation                      ... off
GBWName                                         ... /home/rwth0701/scratch/cs681498/orcajob__30556385-5hHX/11278.gbw
Electron density                                ... /home/rwth0701/scratch/cs681498/orcajob__30556385-5hHX/11278.scfp
The origin for moment calculation is the CENTER OF MASS  = (-86.996503, -126.191232 -41.894560)

-------------
DIPOLE MOMENT
-------------
                                X             Y             Z
Electronic contribution:      0.14616      -0.02415       0.04227
Nuclear contribution   :     -0.15265       0.01509      -0.07339
                        -----------------------------------------
Total Dipole Moment    :     -0.00649      -0.00906      -0.03112
                        -----------------------------------------
Magnitude (a.u.)       :      0.03306
Magnitude (Debye)      :      0.08403



--------------------
Rotational spectrum 
--------------------
 
Rotational constants in cm-1:    11.487861     8.310176     4.829608 
Rotational constants in MHz : 344397.422531 249132.806886 144788.004330 

 Dipole components along the rotational axes: 
x,y,z [a.u.] :    -0.015196     0.003069    -0.029200 
x,y,z [Debye]:    -0.038626     0.007801    -0.074221 

 


           ************************************************************
           *        Program running with 4 parallel MPI-processes     *
           *              working on a common directory               *
           ************************************************************
------------------------------------------------------------------------------
                         ORCA SPIN-ORBIT COUPLING CALCULATION
------------------------------------------------------------------------------

GBW file                                    ... /home/rwth0701/scratch/cs681498/orcajob__30556385-5hHX/11278.gbw
Input density                               ... /home/rwth0701/scratch/cs681498/orcajob__30556385-5hHX/11278.scfp
Output integrals                            ... /home/rwth0701/scratch/cs681498/orcajob__30556385-5hHX/11278
Operator type                               ... Mean-field/Effective potential
   One-Electron Terms                       ... 1
   Coulomb Contribution                     ... 3
   Exchange Contribution                    ... 3
   Correlation Contribution                 ... 0
   Maximum number of centers                ... 4
SHARK 2-electron RIJ-SOMF                   ... done (  0.1 sec)
SHARK 1-electron  MaxCenter=4               ... done (  0.0 sec)
SHARK 2-electron DoJ,X=0,1 MaxCenter=1      ... done (  0.1 sec)

Maximum memory used throughout the entire SOC-calculation: 11.3 MB
Total time for SOC:  2.258


           ************************************************************
           *        Program running with 4 parallel MPI-processes     *
           *              working on a common directory               *
           ************************************************************
------------------------------------------------------------------------------
                                ORCA EPR/NMR CALCULATION
------------------------------------------------------------------------------

GBWName                      ... /home/rwth0701/scratch/cs681498/orcajob__30556385-5hHX/11278.gbw
Electron density             ... /home/rwth0701/scratch/cs681498/orcajob__30556385-5hHX/11278.scfp
Spin density                 ... /home/rwth0701/scratch/cs681498/orcajob__30556385-5hHX/11278.scfr
Spin-orbit integrals         ... /home/rwth0701/scratch/cs681498/orcajob__30556385-5hHX/11278
Treatment of gauge           ... GIAO (approximations 1/2el = 0,0)
Details of the CP(SCF) procedure:
       Solver   = POPLE   
       MaxIter  =    64   
       Tolerance=    1.000e-03
       COSX Grid=     1   
       Op-0     =   0-  4 =>   5- 72
       Op-1     =   0-  3 =>   4- 72
Multiplicity                 ... 2
g-tensor                     ... 1
NMR chemical shifts          ... 0
NMR spin-spin couplings      ... 0
NMR spectrum                 ... 0
Number of nuclei for epr/nmr ... 4
   Nucleus:   1H 
       Hyperfine : Isotope=    1 I=   0.500 P= 533.551
       Quadrupole: Isotope=    2 I=   1.000 Q=   0.003
       Spin-Orbit: Zeff=   1.000
       Nuclear Spin-Spin: Gn=   0.000
       EPRNMR Input: 
       rho(0)=N f(grad)=N a(iso)=Y a(dip)=Y a(orb)=Y sigma(nmr)=N spin-spin(nmr)=all-N,DSO-N,PSO-N,FC-N,SD-N
   Nucleus:   2H 
       Hyperfine : Isotope=    1 I=   0.500 P= 533.551
       Quadrupole: Isotope=    2 I=   1.000 Q=   0.003
       Spin-Orbit: Zeff=   1.000
       Nuclear Spin-Spin: Gn=   0.000
       EPRNMR Input: 
       rho(0)=N f(grad)=N a(iso)=Y a(dip)=Y a(orb)=Y sigma(nmr)=N spin-spin(nmr)=all-N,DSO-N,PSO-N,FC-N,SD-N
   Nucleus:   3H 
       Hyperfine : Isotope=    1 I=   0.500 P= 533.551
       Quadrupole: Isotope=    2 I=   1.000 Q=   0.003
       Spin-Orbit: Zeff=   1.000
       Nuclear Spin-Spin: Gn=   0.000
       EPRNMR Input: 
       rho(0)=N f(grad)=N a(iso)=Y a(dip)=Y a(orb)=Y sigma(nmr)=N spin-spin(nmr)=all-N,DSO-N,PSO-N,FC-N,SD-N
   Nucleus:   0C 
       Hyperfine : Isotope=   13 I=   0.500 P= 134.190
       Quadrupole: Isotope=   13 I=   0.500 Q=   0.000
       Spin-Orbit: Zeff=   3.600
       Nuclear Spin-Spin: Gn=   0.000
       EPRNMR Input: 
       rho(0)=N f(grad)=N a(iso)=Y a(dip)=Y a(orb)=Y sigma(nmr)=N spin-spin(nmr)=all-N,DSO-N,PSO-N,FC-N,SD-N
Forming RHS of the CP-SCF equations         ... 
Calculating right hand sides for GIAO treatment        ... 
  Entering RightHandSide GIAO. ScalHFX=    0.2000 NeedHFX=1
     -> 1-electron GIAO integrals will be done analytically
     -> RIJCOSX used in SCF. Same chosen for GIAO calculation.
     Making grid for GIAO integrations   ...

GRID GIAO
---------

General Integration Accuracy     IntAcc      ... 4.388
Radial Grid Type                 RadialGrid  ... OptM3 with GC (2021)
Angular Grid (max. ang.)         AngularGrid ... 4 (Lebedev-302)
Angular grid pruning method      GridPruning ... 4 (adaptive)
Weight generation scheme         WeightScheme... Becke
Basis function cutoff            BFCut       ... 1.0000e-10
Integration weight cutoff        WCut        ... 1.0000e-14
Angular grids for H and He will be reduced by one unit
Partially contracted basis set               ... off
Rotationally invariant grid construction     ... off

Total number of grid points                  ...    17037
Total number of batches                      ...      269
Average number of points per batch           ...       63
Average number of grid points per atom       ...     4259

  One-electron GIAO integrals (SHARK)     ... done
  Calculating G(B)[P]                     ... (RI-J: SHARK-ok) (COSX-ok) (add-J+K:ok) => dG/dB done
  DFT XC-terms                            ... done
  Extracting occupied and virtual blocks  ... 
  Operator  0  NO=   5 NV=  68 
  Operator  1  NO=   4 NV=  69 
  Transforming and RHS contribution       ... done
  Adding eps_i * S(B)_ai terms            ... done
  Projecting overlap derivatives          ... done
  Building G[dS/dB_ij] (COSX)             ... done
  Transforming to MO basis                ... done
  Summing G[dS/dB_ij] into RHS contribs.  ... done

  GIAO profiling information: 
    Total GIAO time               ...       0.9 sec
       GIAO 1-electron integrals  ...       0.0 sec (  1.0%)
       GIAO G(dS/dB) terms        ...       0.1 sec ( 12.5%)
       GIAO RI-J                  ...       0.1 sec ( 12.5%)
       GIAO COSX                  ...       0.1 sec ( 17.5%)
       GIAO XC-terms              ...       0.3 sec ( 34.4%)

  GIAO right hand side done


------------------------------------------------------------------------------
                           ORCA CP-SCF CALCULATION
------------------------------------------------------------------------------

Input orbitals are from        ... /home/rwth0701/scratch/cs681498/orcajob__30556385-5hHX/11278.gbw
Input Perturbation             ... /home/rwth0701/scratch/cs681498/orcajob__30556385-5hHX/11278.pin.tmp
Wavefunction output            ... /home/rwth0701/scratch/cs681498/orcajob__30556385-5hHX/11278.pout.tmp
Perturbation mode              ... Imaginary perturbation
Solver                         ... POPLE
Max. number of iterations      ... 64
Convergence tolerance          ... 1.000e-03
Integral handling              ... Direct
DFT GridXC                     ... 1
COSX GridX                     ... 1
COSX IntAccX                   ... 3.067
COSX Algorithm                 ... Auto
Number of perturbations        ... 3
Number of operators            ... 2
Orbital ranges used for CP-SCF:
 Operator 0:  Orbitals   0...  4  to   5... 72
 Operator 1:  Orbitals   0...  3  to   4... 72
Variables per perturbation     ... 616
DFT calculation                         ... on
XC functional terms                     ... off
Hybrid DFT                              ... on
   Exchange mixing (SCF)                ...  0.200
   Exchange mixing (CP-SCF)             ...  0.200
   GGA exch. scaling(SCF)               ...  0.720
   GGA exch. scaling (CP-SCF)           ...  0.720
   GGA corr. scaling (SCF)              ...  0.810
   GGA corr. scaling (CP-SCF)           ...  0.810

CP-SCF GRID
-----------

General Integration Accuracy     IntAcc      ... 3.467
Radial Grid Type                 RadialGrid  ... OptM3 with GC (2021)
Angular Grid (max. ang.)         AngularGrid ... 1 (Lebedev-50)
Angular grid pruning method      GridPruning ... 4 (adaptive)
Weight generation scheme         WeightScheme... Becke
Basis function cutoff            BFCut       ... 1.0000e-10
Integration weight cutoff        WCut        ... 1.0000e-14
Angular grids for H and He will be reduced by one unit
Partially contracted basis set               ... off
Rotationally invariant grid construction     ... off

Total number of grid points                  ...     2331
Total number of batches                      ...       38
Average number of points per batch           ...       61
Average number of grid points per atom       ...      583

CP-SCF GRIDX
------------

General Integration Accuracy     IntAcc      ... 3.067
Radial Grid Type                 RadialGrid  ... OptM3 with GC (2021)
Angular Grid (max. ang.)         AngularGrid ... 1 (Lebedev-50)
Angular grid pruning method      GridPruning ... 4 (adaptive)
Weight generation scheme         WeightScheme... Becke
Basis function cutoff            BFCut       ... 1.0000e-10
Integration weight cutoff        WCut        ... 1.0000e-14
Angular grids for H and He will be reduced by one unit
Partially contracted basis set               ... on
Rotationally invariant grid construction     ... off

Total number of grid points                  ...     1072
Total number of batches                      ...       20
Average number of points per batch           ...       53
Average number of grid points per atom       ...      268

Memory available               ... 1014.6 MB
Memory needed per perturbation ...   0.4 MB
Perturbations treated per batch... 3
Number of batches              ... 1
     CP-SCF ITERATION   0:   5.9856e+00 (   0.1 sec   0/  3 done)
     CP-SCF ITERATION   1:   5.5222e-02 (   0.1 sec   0/  3 done)
     CP-SCF ITERATION   2:   3.7946e-03 (   0.1 sec   0/  3 done)
     CP-SCF ITERATION   3:   3.9051e-04 (   0.1 sec   3/  3 done)
                    *** THE CP-SCF HAS CONVERGED ***

Forming final perturbed densities           ... done
Transforming perturbed density to AO basis  ... done

Magnetic field perturbation calculated in  1.367 sec
GIAO: Diamagnetic terms      (analytic)     (SHARK) ... done
GIAO: 1el-Paramagnetic terms (analytic)     (SHARK) ... done

-------------------
ELECTRONIC G-MATRIX
-------------------

 The g-matrix: 
              2.0029060    0.0000315   -0.0000008
              0.0000495    2.0029121    0.0001140
             -0.0000190    0.0000863    2.0022541

 gel          2.0023193    2.0023193    2.0023193
 gRMC        -0.0001268   -0.0001268   -0.0001268
 gDSO(tot)    0.0000344    0.0000710    0.0000712
 gPSO(tot)    0.0000120    0.0006134    0.0006930
             ----------   ----------   ----------
 g(tot)       2.0022388    2.0028768    2.0029566 iso=  2.0026907
 Delta-g     -0.0000804    0.0005575    0.0006373 iso=  0.0003715
 Orientation: 
  X           0.0237407   -0.7928634   -0.6089368
  Y          -0.1484537    0.5995594   -0.7864414
  Z           0.9886344    0.1090696   -0.1034695

Notes:  (1) The g-matrix conforms to the "BgS" spin Hamiltonian convention. 
        (2) The principal values are square roots of the eigenvalues of g*gT.
        (3) Orientations are eigenvectors of g*gT written as column vectors.
        (4) Individual contributions are projections of the full matrices onto the eigenvectors of g*gT.
        (5) Tensor is right-handed.


-----------------------------------------
ELECTRIC AND MAGNETIC HYPERFINE STRUCTURE
-----------------------------------------

 -----------------------------------------------------------
 Nucleus   1H : A:ISTP=    1 I=  0.5 P=533.5514 MHz/au**3
                Q:ISTP=    2 I=  1.0 Q=  0.0029 barn     
 -----------------------------------------------------------
 Solving for nuclear perturbation:
Forming RHS of the CP-SCF equations         ... 
Calc. nucleus orbit integrals (SHARK)       ... done

------------------------------------------------------------------------------
                           ORCA CP-SCF CALCULATION
------------------------------------------------------------------------------

Input orbitals are from        ... /home/rwth0701/scratch/cs681498/orcajob__30556385-5hHX/11278.gbw
Input Perturbation             ... /home/rwth0701/scratch/cs681498/orcajob__30556385-5hHX/11278.pin.tmp
Wavefunction output            ... /home/rwth0701/scratch/cs681498/orcajob__30556385-5hHX/11278.pout.tmp
Perturbation mode              ... Imaginary perturbation
Solver                         ... POPLE
Max. number of iterations      ... 64
Convergence tolerance          ... 1.000e-03
Integral handling              ... Direct
DFT GridXC                     ... 1
COSX GridX                     ... 1
COSX IntAccX                   ... 3.067
COSX Algorithm                 ... Auto
Number of perturbations        ... 3
Number of operators            ... 2
Orbital ranges used for CP-SCF:
 Operator 0:  Orbitals   0...  4  to   5... 72
 Operator 1:  Orbitals   0...  3  to   4... 72
Variables per perturbation     ... 616
DFT calculation                         ... on
XC functional terms                     ... off
Hybrid DFT                              ... on
   Exchange mixing (SCF)                ...  0.200
   Exchange mixing (CP-SCF)             ...  0.200
   GGA exch. scaling(SCF)               ...  0.720
   GGA exch. scaling (CP-SCF)           ...  0.720
   GGA corr. scaling (SCF)              ...  0.810
   GGA corr. scaling (CP-SCF)           ...  0.810

CP-SCF GRID
-----------

General Integration Accuracy     IntAcc      ... 3.467
Radial Grid Type                 RadialGrid  ... OptM3 with GC (2021)
Angular Grid (max. ang.)         AngularGrid ... 1 (Lebedev-50)
Angular grid pruning method      GridPruning ... 4 (adaptive)
Weight generation scheme         WeightScheme... Becke
Basis function cutoff            BFCut       ... 1.0000e-10
Integration weight cutoff        WCut        ... 1.0000e-14
Angular grids for H and He will be reduced by one unit
Partially contracted basis set               ... off
Rotationally invariant grid construction     ... off

Total number of grid points                  ...     2331
Total number of batches                      ...       38
Average number of points per batch           ...       61
Average number of grid points per atom       ...      583

CP-SCF GRIDX
------------

General Integration Accuracy     IntAcc      ... 3.067
Radial Grid Type                 RadialGrid  ... OptM3 with GC (2021)
Angular Grid (max. ang.)         AngularGrid ... 1 (Lebedev-50)
Angular grid pruning method      GridPruning ... 4 (adaptive)
Weight generation scheme         WeightScheme... Becke
Basis function cutoff            BFCut       ... 1.0000e-10
Integration weight cutoff        WCut        ... 1.0000e-14
Angular grids for H and He will be reduced by one unit
Partially contracted basis set               ... on
Rotationally invariant grid construction     ... off

Total number of grid points                  ...     1072
Total number of batches                      ...       20
Average number of points per batch           ...       53
Average number of grid points per atom       ...      268

Memory available               ... 968.0 MB
Memory needed per perturbation ...   0.4 MB
Perturbations treated per batch... 3
Number of batches              ... 1
     CP-SCF ITERATION   0:   5.9788e-02 (   0.1 sec   0/  3 done)
     CP-SCF ITERATION   1:   2.0450e-03 (   0.1 sec   1/  3 done)
     CP-SCF ITERATION   2:   1.4748e-04 (   0.1 sec   3/  3 done)
                    *** THE CP-SCF HAS CONVERGED ***

Forming final perturbed densities           ... done
Transforming perturbed density to AO basis  ... done

 Raw HFC matrix (all values in MHz): 
 -----------------------------------
               -25.0315               1.7146               1.4482
                 1.7162             -99.8633              -6.3475
                 1.4484              -6.3475             -63.6460

 A(FC)         -62.8621             -62.8621             -62.8621
 A(SD)          37.8991               0.2625             -38.1616
 A(ORB+DIA)      0.0152              -0.0007               0.0309    A(PC) =   0.0151
 A(ORB)          0.0105               0.0004               0.0295    A(PC) =   0.0135
 A(DIA)          0.0047              -0.0011               0.0014    A(PC) =   0.0016
             ----------           ----------           ----------
 A(Tot)        -24.9478             -62.6003            -100.9928    A(iso)=  -62.8469
 Orientation: 
  X           0.9992182            0.0302508           -0.0254542
  Y           0.0199792            0.1692004            0.9853791
  Z           0.0341154           -0.9851173            0.1684638

Notes:  (1) The A matrix conforms to the "SAI" spin Hamiltonian convention.
        (2) Tensor is right-handed.

 -----------------------------------------------------------
 Nucleus   2H : A:ISTP=    1 I=  0.5 P=533.5514 MHz/au**3
                Q:ISTP=    2 I=  1.0 Q=  0.0029 barn     
 -----------------------------------------------------------
 Solving for nuclear perturbation:
Forming RHS of the CP-SCF equations         ... 
Calc. nucleus orbit integrals (SHARK)       ... done

------------------------------------------------------------------------------
                           ORCA CP-SCF CALCULATION
------------------------------------------------------------------------------

Input orbitals are from        ... /home/rwth0701/scratch/cs681498/orcajob__30556385-5hHX/11278.gbw
Input Perturbation             ... /home/rwth0701/scratch/cs681498/orcajob__30556385-5hHX/11278.pin.tmp
Wavefunction output            ... /home/rwth0701/scratch/cs681498/orcajob__30556385-5hHX/11278.pout.tmp
Perturbation mode              ... Imaginary perturbation
Solver                         ... POPLE
Max. number of iterations      ... 64
Convergence tolerance          ... 1.000e-03
Integral handling              ... Direct
DFT GridXC                     ... 1
COSX GridX                     ... 1
COSX IntAccX                   ... 3.067
COSX Algorithm                 ... Auto
Number of perturbations        ... 3
Number of operators            ... 2
Orbital ranges used for CP-SCF:
 Operator 0:  Orbitals   0...  4  to   5... 72
 Operator 1:  Orbitals   0...  3  to   4... 72
Variables per perturbation     ... 616
DFT calculation                         ... on
XC functional terms                     ... off
Hybrid DFT                              ... on
   Exchange mixing (SCF)                ...  0.200
   Exchange mixing (CP-SCF)             ...  0.200
   GGA exch. scaling(SCF)               ...  0.720
   GGA exch. scaling (CP-SCF)           ...  0.720
   GGA corr. scaling (SCF)              ...  0.810
   GGA corr. scaling (CP-SCF)           ...  0.810

CP-SCF GRID
-----------

General Integration Accuracy     IntAcc      ... 3.467
Radial Grid Type                 RadialGrid  ... OptM3 with GC (2021)
Angular Grid (max. ang.)         AngularGrid ... 1 (Lebedev-50)
Angular grid pruning method      GridPruning ... 4 (adaptive)
Weight generation scheme         WeightScheme... Becke
Basis function cutoff            BFCut       ... 1.0000e-10
Integration weight cutoff        WCut        ... 1.0000e-14
Angular grids for H and He will be reduced by one unit
Partially contracted basis set               ... off
Rotationally invariant grid construction     ... off

Total number of grid points                  ...     2331
Total number of batches                      ...       38
Average number of points per batch           ...       61
Average number of grid points per atom       ...      583

CP-SCF GRIDX
------------

General Integration Accuracy     IntAcc      ... 3.067
Radial Grid Type                 RadialGrid  ... OptM3 with GC (2021)
Angular Grid (max. ang.)         AngularGrid ... 1 (Lebedev-50)
Angular grid pruning method      GridPruning ... 4 (adaptive)
Weight generation scheme         WeightScheme... Becke
Basis function cutoff            BFCut       ... 1.0000e-10
Integration weight cutoff        WCut        ... 1.0000e-14
Angular grids for H and He will be reduced by one unit
Partially contracted basis set               ... on
Rotationally invariant grid construction     ... off

Total number of grid points                  ...     1072
Total number of batches                      ...       20
Average number of points per batch           ...       53
Average number of grid points per atom       ...      268

Memory available               ... 967.8 MB
Memory needed per perturbation ...   0.4 MB
Perturbations treated per batch... 3
Number of batches              ... 1
     CP-SCF ITERATION   0:   8.1003e-02 (   0.1 sec   0/  3 done)
     CP-SCF ITERATION   1:   3.1707e-03 (   0.1 sec   0/  3 done)
     CP-SCF ITERATION   2:   2.6121e-04 (   0.1 sec   3/  3 done)
                    *** THE CP-SCF HAS CONVERGED ***

Forming final perturbed densities           ... done
Transforming perturbed density to AO basis  ... done

 Raw HFC matrix (all values in MHz): 
 -----------------------------------
               -98.8830             -27.3561              -4.7153
               -27.3584             -32.2696               5.6293
                -4.7158               5.6294             -54.6254

 A(FC)         -61.9419             -61.9419             -61.9419
 A(SD)          40.8715               6.0205             -46.8920
 A(ORB+DIA)      0.0129              -0.0005               0.0354    A(PC) =   0.0159
 A(ORB)          0.0068               0.0007               0.0335    A(PC) =   0.0137
 A(DIA)          0.0061              -0.0013               0.0019    A(PC) =   0.0022
             ----------           ----------           ----------
 A(Tot)        -21.0575             -55.9219            -108.7985    A(iso)=  -61.9260
 Orientation: 
  X          -0.3356607            0.0235470            0.9416886
  Y           0.9201856           -0.2056156            0.3331375
  Z           0.2014702            0.9783495            0.0473495

Notes:  (1) The A matrix conforms to the "SAI" spin Hamiltonian convention.
        (2) Tensor is right-handed.

 -----------------------------------------------------------
 Nucleus   3H : A:ISTP=    1 I=  0.5 P=533.5514 MHz/au**3
                Q:ISTP=    2 I=  1.0 Q=  0.0029 barn     
 -----------------------------------------------------------
 Solving for nuclear perturbation:
Forming RHS of the CP-SCF equations         ... 
Calc. nucleus orbit integrals (SHARK)       ... done

------------------------------------------------------------------------------
                           ORCA CP-SCF CALCULATION
------------------------------------------------------------------------------

Input orbitals are from        ... /home/rwth0701/scratch/cs681498/orcajob__30556385-5hHX/11278.gbw
Input Perturbation             ... /home/rwth0701/scratch/cs681498/orcajob__30556385-5hHX/11278.pin.tmp
Wavefunction output            ... /home/rwth0701/scratch/cs681498/orcajob__30556385-5hHX/11278.pout.tmp
Perturbation mode              ... Imaginary perturbation
Solver                         ... POPLE
Max. number of iterations      ... 64
Convergence tolerance          ... 1.000e-03
Integral handling              ... Direct
DFT GridXC                     ... 1
COSX GridX                     ... 1
COSX IntAccX                   ... 3.067
COSX Algorithm                 ... Auto
Number of perturbations        ... 3
Number of operators            ... 2
Orbital ranges used for CP-SCF:
 Operator 0:  Orbitals   0...  4  to   5... 72
 Operator 1:  Orbitals   0...  3  to   4... 72
Variables per perturbation     ... 616
DFT calculation                         ... on
XC functional terms                     ... off
Hybrid DFT                              ... on
   Exchange mixing (SCF)                ...  0.200
   Exchange mixing (CP-SCF)             ...  0.200
   GGA exch. scaling(SCF)               ...  0.720
   GGA exch. scaling (CP-SCF)           ...  0.720
   GGA corr. scaling (SCF)              ...  0.810
   GGA corr. scaling (CP-SCF)           ...  0.810

CP-SCF GRID
-----------

General Integration Accuracy     IntAcc      ... 3.467
Radial Grid Type                 RadialGrid  ... OptM3 with GC (2021)
Angular Grid (max. ang.)         AngularGrid ... 1 (Lebedev-50)
Angular grid pruning method      GridPruning ... 4 (adaptive)
Weight generation scheme         WeightScheme... Becke
Basis function cutoff            BFCut       ... 1.0000e-10
Integration weight cutoff        WCut        ... 1.0000e-14
Angular grids for H and He will be reduced by one unit
Partially contracted basis set               ... off
Rotationally invariant grid construction     ... off

Total number of grid points                  ...     2331
Total number of batches                      ...       38
Average number of points per batch           ...       61
Average number of grid points per atom       ...      583

CP-SCF GRIDX
------------

General Integration Accuracy     IntAcc      ... 3.067
Radial Grid Type                 RadialGrid  ... OptM3 with GC (2021)
Angular Grid (max. ang.)         AngularGrid ... 1 (Lebedev-50)
Angular grid pruning method      GridPruning ... 4 (adaptive)
Weight generation scheme         WeightScheme... Becke
Basis function cutoff            BFCut       ... 1.0000e-10
Integration weight cutoff        WCut        ... 1.0000e-14
Angular grids for H and He will be reduced by one unit
Partially contracted basis set               ... on
Rotationally invariant grid construction     ... off

Total number of grid points                  ...     1072
Total number of batches                      ...       20
Average number of points per batch           ...       53
Average number of grid points per atom       ...      268

Memory available               ... 967.7 MB
Memory needed per perturbation ...   0.4 MB
Perturbations treated per batch... 3
Number of batches              ... 1
     CP-SCF ITERATION   0:   6.1614e-02 (   0.1 sec   0/  3 done)
     CP-SCF ITERATION   1:   2.5758e-03 (   0.1 sec   0/  3 done)
     CP-SCF ITERATION   2:   2.3568e-04 (   0.1 sec   3/  3 done)
                    *** THE CP-SCF HAS CONVERGED ***

Forming final perturbed densities           ... done
Transforming perturbed density to AO basis  ... done

 Raw HFC matrix (all values in MHz): 
 -----------------------------------
               -87.6195              31.6616               4.9501
                31.6596             -50.9751               1.9028
                 4.9498               1.9027             -70.1775

 A(FC)         -69.6046             -69.6046             -69.6046
 A(SD)          37.3226              -0.7106             -36.6120
 A(ORB+DIA)      0.0145              -0.0007               0.0280    A(PC) =   0.0139
 A(ORB)          0.0100               0.0004               0.0268    A(PC) =   0.0124
 A(DIA)          0.0045              -0.0011               0.0012    A(PC) =   0.0015
             ----------           ----------           ----------
 A(Tot)        -32.2675             -70.3160            -106.1886    A(iso)=  -69.5907
 Orientation: 
  X          -0.5008716            0.0262730           -0.8651227
  Y          -0.8586942           -0.1403821            0.4928865
  Z          -0.1084981            0.9897488            0.0928739

Notes:  (1) The A matrix conforms to the "SAI" spin Hamiltonian convention.
        (2) Tensor is right-handed.

 -----------------------------------------------------------
 Nucleus   0C : A:ISTP=   13 I=  0.5 P=134.1903 MHz/au**3
                Q:ISTP=   13 I=  0.5 Q=  0.0000 barn     
 -----------------------------------------------------------
 Solving for nuclear perturbation:
Forming RHS of the CP-SCF equations         ... 
Calc. nucleus orbit integrals (SHARK)       ... done

------------------------------------------------------------------------------
                           ORCA CP-SCF CALCULATION
------------------------------------------------------------------------------

Input orbitals are from        ... /home/rwth0701/scratch/cs681498/orcajob__30556385-5hHX/11278.gbw
Input Perturbation             ... /home/rwth0701/scratch/cs681498/orcajob__30556385-5hHX/11278.pin.tmp
Wavefunction output            ... /home/rwth0701/scratch/cs681498/orcajob__30556385-5hHX/11278.pout.tmp
Perturbation mode              ... Imaginary perturbation
Solver                         ... POPLE
Max. number of iterations      ... 64
Convergence tolerance          ... 1.000e-03
Integral handling              ... Direct
DFT GridXC                     ... 1
COSX GridX                     ... 1
COSX IntAccX                   ... 3.067
COSX Algorithm                 ... Auto
Number of perturbations        ... 3
Number of operators            ... 2
Orbital ranges used for CP-SCF:
 Operator 0:  Orbitals   0...  4  to   5... 72
 Operator 1:  Orbitals   0...  3  to   4... 72
Variables per perturbation     ... 616
DFT calculation                         ... on
XC functional terms                     ... off
Hybrid DFT                              ... on
   Exchange mixing (SCF)                ...  0.200
   Exchange mixing (CP-SCF)             ...  0.200
   GGA exch. scaling(SCF)               ...  0.720
   GGA exch. scaling (CP-SCF)           ...  0.720
   GGA corr. scaling (SCF)              ...  0.810
   GGA corr. scaling (CP-SCF)           ...  0.810

CP-SCF GRID
-----------

General Integration Accuracy     IntAcc      ... 3.467
Radial Grid Type                 RadialGrid  ... OptM3 with GC (2021)
Angular Grid (max. ang.)         AngularGrid ... 1 (Lebedev-50)
Angular grid pruning method      GridPruning ... 4 (adaptive)
Weight generation scheme         WeightScheme... Becke
Basis function cutoff            BFCut       ... 1.0000e-10
Integration weight cutoff        WCut        ... 1.0000e-14
Angular grids for H and He will be reduced by one unit
Partially contracted basis set               ... off
Rotationally invariant grid construction     ... off

Total number of grid points                  ...     2331
Total number of batches                      ...       38
Average number of points per batch           ...       61
Average number of grid points per atom       ...      583

CP-SCF GRIDX
------------

General Integration Accuracy     IntAcc      ... 3.067
Radial Grid Type                 RadialGrid  ... OptM3 with GC (2021)
Angular Grid (max. ang.)         AngularGrid ... 1 (Lebedev-50)
Angular grid pruning method      GridPruning ... 4 (adaptive)
Weight generation scheme         WeightScheme... Becke
Basis function cutoff            BFCut       ... 1.0000e-10
Integration weight cutoff        WCut        ... 1.0000e-14
Angular grids for H and He will be reduced by one unit
Partially contracted basis set               ... on
Rotationally invariant grid construction     ... off

Total number of grid points                  ...     1072
Total number of batches                      ...       20
Average number of points per batch           ...       53
Average number of grid points per atom       ...      268

Memory available               ... 967.6 MB
Memory needed per perturbation ...   0.4 MB
Perturbations treated per batch... 3
Number of batches              ... 1
     CP-SCF ITERATION   0:   1.1574e+00 (   0.1 sec   0/  3 done)
     CP-SCF ITERATION   1:   4.5045e-02 (   0.1 sec   0/  3 done)
     CP-SCF ITERATION   2:   3.2466e-03 (   0.1 sec   0/  3 done)
     CP-SCF ITERATION   3:   1.8080e-04 (   0.1 sec   3/  3 done)
                    *** THE CP-SCF HAS CONVERGED ***

Forming final perturbed densities           ... done
Transforming perturbed density to AO basis  ... done

 Raw HFC matrix (all values in MHz): 
 -----------------------------------
                 2.6439              -0.2406               2.0496
                -0.2407               8.5221             -40.1878
                 2.0496             -40.1878             236.2240

 A(FC)          82.5759              82.5759              82.5759
 A(SD)         -80.7837             -79.7789             160.5626
 A(ORB+DIA)     -0.1667              -0.1590              -0.0121    A(PC) =  -0.1126
 A(ORB)         -0.1671              -0.1594              -0.0120    A(PC) =  -0.1128
 A(DIA)          0.0004               0.0004              -0.0001    A(PC) =   0.0002
             ----------           ----------           ----------
 A(Tot)          1.6256               2.6380             243.1264    A(iso)=   82.4633
 Orientation: 
  X          -0.1082082            0.9940913           -0.0085693
  Y           0.9796974            0.1080969            0.1688435
  Z           0.1687721            0.0098749           -0.9856056

Notes:  (1) The A matrix conforms to the "SAI" spin Hamiltonian convention.
        (2) Tensor is right-handed.


--------------------------------------------------------------------------------
----------------------------------------------------------------------------
                           ORCA EULER ANGLE PROGRAM
----------------------------------------------------------------------------

Only g-tensor available        -->  using g-tensor as reference tensor

Reference tensor               ...  g

g-tensor ordering              ...  |g_min> --> |gx>
                                    |g_mid> --> |gy>
                                    |g_max> --> |gz>

A- and EFG-tensor ordering     ...  the axes |Ax>, |Qx>, |Ay>, etc. are assigned
                                    such that the Euler rotation is minimal. You
                                    can find the respective eigenvalues as Ax,
                                    EFGx, Ay, etc. in the tables below.
                                    The relation of |Ax>, |Ay>,  etc. to Amin, Amid, etc.
                                    (as printed in the ORCA EPR/NMR CALCULATION Output)
                                    is obtained in the detailed printout.

Euler rotation around          ...  z - y - z
   First rotation              -->  by alpha around z
   Second rotation             -->  by beta around y'
   Third rotation              -->  by gamma around z''
   Positive / Negative angle   -->  clockwise / counterclockwise rotation

Plot EFG-tensors                    (-)
Plot HFC-tensors                    (-)
Detailed Printout                   (-)

-------------------------------------------------------------------------
          Euler rotation of hyperfine tensor to g-tensor
-------------------------------------------------------------------------

-------------------------------------------------------------------
 Atom  |   Alpha    Beta    Gamma   |   Ax       Ay       Az 
       |          [degrees]         |           [MHz]         
-------------------------------------------------------------------
  1H       85.5     39.0    -88.2     -62.60   -24.95  -100.99
  2H      -85.1     32.8     87.9     -55.92   -21.06  -108.80
  3H       93.5      7.5    -93.7     -70.32  -106.19   -32.27
  0C       87.9     43.8    -88.4     243.13     2.64     1.63
-------------------------------------------------------------------


Maximum memory used throughout the entire EPRNMR-calculation: 67.6 MB

Timings for individual modules:

Sum of individual times         ...       18.070 sec (=   0.301 min)
GTO integral calculation        ...        2.053 sec (=   0.034 min)  11.4 %
Spin-Orbit-Coupling Matrices    ...        2.249 sec (=   0.037 min)  12.4 %
SCF iterations                  ...        7.333 sec (=   0.122 min)  40.6 %
EPR/NMR calculation             ...        6.435 sec (=   0.107 min)  35.6 %
                             ****ORCA TERMINATED NORMALLY****
TOTAL RUN TIME: 0 days 0 hours 0 minutes 20 seconds 568 msec
