Job execution start: Mon Oct 24 19:40:35 CEST 2022
Shared library path: /home/cs681498/orca:/opt/MPI/openmpi-4.1.1/linux/gcc_4.8.5/lib:/opt/MPI/openmpi-4.1.1/linux/gcc_4.8.5/lib/lib32
Slurm Job ID is: 30556189
Slurm Job name is: 4299
ncm0048

                                 *****************
                                 * O   R   C   A *
                                 *****************

                                            #,                                       
                                            ###                                      
                                            ####                                     
                                            #####                                    
                                            ######                                   
                                           ########,                                 
                                     ,,################,,,,,                         
                               ,,#################################,,                 
                          ,,##########################################,,             
                       ,#########################################, ''#####,          
                    ,#############################################,,   '####,        
                  ,##################################################,,,,####,       
                ,###########''''           ''''###############################       
              ,#####''   ,,,,##########,,,,          '''####'''          '####       
            ,##' ,,,,###########################,,,                        '##       
           ' ,,###''''                  '''############,,,                           
         ,,##''                                '''############,,,,        ,,,,,,###''
      ,#''                                            '''#######################'''  
     '                                                          ''''####''''         
             ,#######,   #######,   ,#######,      ##                                
            ,#'     '#,  ##    ##  ,#'     '#,    #''#        ######   ,####,        
            ##       ##  ##   ,#'  ##            #'  '#       #        #'  '#        
            ##       ##  #######   ##           ,######,      #####,   #    #        
            '#,     ,#'  ##    ##  '#,     ,#' ,#      #,         ##   #,  ,#        
             '#######'   ##     ##  '#######'  #'      '#     #####' # '####'        



                  #######################################################
                  #                        -***-                        #
                  #          Department of theory and spectroscopy      #
                  #    Directorship and core code : Frank Neese         #
                  #        Max Planck Institute fuer Kohlenforschung    #
                  #                Kaiser Wilhelm Platz 1               #
                  #                 D-45470 Muelheim/Ruhr               #
                  #                      Germany                        #
                  #                                                     #
                  #                  All rights reserved                #
                  #                        -***-                        #
                  #######################################################


                         Program Version 5.0.3 -  RELEASE  -


 With contributions from (in alphabetic order):
   Daniel Aravena         : Magnetic Suceptibility
   Michael Atanasov       : Ab Initio Ligand Field Theory (pilot matlab implementation)
   Alexander A. Auer      : GIAO ZORA, VPT2 properties, NMR spectrum
   Ute Becker             : Parallelization
   Giovanni Bistoni       : ED, misc. LED, open-shell LED, HFLD
   Martin Brehm           : Molecular dynamics
   Dmytro Bykov           : SCF Hessian
   Vijay G. Chilkuri      : MRCI spin determinant printing, contributions to CSF-ICE
   Dipayan Datta          : RHF DLPNO-CCSD density
   Achintya Kumar Dutta   : EOM-CC, STEOM-CC
   Dmitry Ganyushin       : Spin-Orbit,Spin-Spin,Magnetic field MRCI
   Miquel Garcia          : C-PCM and meta-GGA Hessian, CC/C-PCM, Gaussian charge scheme
   Yang Guo               : DLPNO-NEVPT2, F12-NEVPT2, CIM, IAO-localization
   Andreas Hansen         : Spin unrestricted coupled pair/coupled cluster methods
   Benjamin Helmich-Paris : MC-RPA, TRAH-SCF, COSX integrals
   Lee Huntington         : MR-EOM, pCC
   Robert Izsak           : Overlap fitted RIJCOSX, COSX-SCS-MP3, EOM
   Marcus Kettner         : VPT2
   Christian Kollmar      : KDIIS, OOCD, Brueckner-CCSD(T), CCSD density, CASPT2, CASPT2-K
   Simone Kossmann        : Meta GGA functionals, TD-DFT gradient, OOMP2, MP2 Hessian
   Martin Krupicka        : Initial AUTO-CI
   Lucas Lang             : DCDCAS
   Marvin Lechner         : AUTO-CI (C++ implementation), FIC-MRCC
   Dagmar Lenk            : GEPOL surface, SMD
   Dimitrios Liakos       : Extrapolation schemes; Compound Job, initial MDCI parallelization
   Dimitrios Manganas     : Further ROCIS development; embedding schemes
   Dimitrios Pantazis     : SARC Basis sets
   Anastasios Papadopoulos: AUTO-CI, single reference methods and gradients
   Taras Petrenko         : DFT Hessian,TD-DFT gradient, ASA, ECA, R-Raman, ABS, FL, XAS/XES, NRVS
   Peter Pinski           : DLPNO-MP2, DLPNO-MP2 Gradient
   Christoph Reimann      : Effective Core Potentials
   Marius Retegan         : Local ZFS, SOC
   Christoph Riplinger    : Optimizer, TS searches, QM/MM, DLPNO-CCSD(T), (RO)-DLPNO pert. Triples
   Tobias Risthaus        : Range-separated hybrids, TD-DFT gradient, RPA, STAB
   Michael Roemelt        : Original ROCIS implementation
   Masaaki Saitow         : Open-shell DLPNO-CCSD energy and density
   Barbara Sandhoefer     : DKH picture change effects
   Avijit Sen             : IP-ROCIS
   Kantharuban Sivalingam : CASSCF convergence, NEVPT2, FIC-MRCI
   Bernardo de Souza      : ESD, SOC TD-DFT
   Georgi Stoychev        : AutoAux, RI-MP2 NMR, DLPNO-MP2 response
   Willem Van den Heuvel  : Paramagnetic NMR
   Boris Wezisla          : Elementary symmetry handling
   Frank Wennmohs         : Technical directorship


 We gratefully acknowledge several colleagues who have allowed us to
 interface, adapt or use parts of their codes:
   Stefan Grimme, W. Hujo, H. Kruse, P. Pracht,  : VdW corrections, initial TS optimization,
                  C. Bannwarth, S. Ehlert          DFT functionals, gCP, sTDA/sTD-DF
   Ed Valeev, F. Pavosevic, A. Kumar             : LibInt (2-el integral package), F12 methods
   Garnet Chan, S. Sharma, J. Yang, R. Olivares  : DMRG
   Ulf Ekstrom                                   : XCFun DFT Library
   Mihaly Kallay                                 : mrcc  (arbitrary order and MRCC methods)
   Jiri Pittner, Ondrej Demel                    : Mk-CCSD
   Frank Weinhold                                : gennbo (NPA and NBO analysis)
   Christopher J. Cramer and Donald G. Truhlar   : smd solvation model
   Lars Goerigk                                  : TD-DFT with DH, B97 family of functionals
   V. Asgeirsson, H. Jonsson                     : NEB implementation
   FAccTs GmbH                                   : IRC, NEB, NEB-TS, DLPNO-Multilevel, CI-OPT
                                                   MM, QMMM, 2- and 3-layer-ONIOM, Crystal-QMMM,
                                                   LR-CPCM, SF, NACMEs, symmetry and pop. for TD-DFT,
                                                   nearIR, NL-DFT gradient (VV10), updates on ESD,
                                                   ML-optimized integration grids
   S Lehtola, MJT Oliveira, MAL Marques          : LibXC Library
   Liviu Ungur et al                             : ANISO software


 Your calculation uses the libint2 library for the computation of 2-el integrals
 For citations please refer to: http://libint.valeyev.net

 Your ORCA version has been built with support for libXC version: 5.1.0
 For citations please refer to: https://tddft.org/programs/libxc/

 This ORCA versions uses:
   CBLAS   interface :  Fast vector & matrix operations
   LAPACKE interface :  Fast linear algebra routines
   SCALAPACK package :  Parallel linear algebra routines
   Shared memory     :  Shared parallel matrices
   BLAS/LAPACK       :  OpenBLAS 0.3.15  USE64BITINT DYNAMIC_ARCH NO_AFFINITY SkylakeX SINGLE_THREADED
        Core in use  :  SkylakeX
   Copyright (c) 2011-2014, The OpenBLAS Project


================================================================================

----- Orbital basis set information -----
Your calculation utilizes the basis: EPR-III
   V. Barone, in Recent Advances in Density Functional Methods, Part 1 (ed. D. P. Chong), World Scientific, Singapore, 1995, p. 287.
   N. Rega, M. Cossi and V. Barone, J. Chem. Phys. 105, 11060 (1996).

----- AuxJ basis set information -----
Your calculation utilizes the AutoAux generation procedure.
  G. L. Stoychev, A. A. Auer, F. Neese, J. Chem. Theory Comput. 13, 554 (2017)

----- AuxC basis set information -----
Your calculation utilizes the AutoAux generation procedure.
  G. L. Stoychev, A. A. Auer, F. Neese, J. Chem. Theory Comput. 13, 554 (2017)

----- AuxJK basis set information -----
Your calculation utilizes the AutoAux generation procedure.
  G. L. Stoychev, A. A. Auer, F. Neese, J. Chem. Theory Comput. 13, 554 (2017)

================================================================================
                                        WARNINGS
                       Please study these warnings very carefully!
================================================================================


WARNING: your system is open-shell and RHF/RKS was chosen
  ===> : WILL SWITCH to UHF/UKS


INFO   : the flag for use of the SHARK integral package has been found!

================================================================================
                                       INPUT FILE
================================================================================
NAME = /home/rwth0701/scratch/cs681498/orcajob__30556189-23co/4299.inp
|  1> !B3LYP EPR-III Autoaux
|  2> !PAL4
|  3> 
|  4> * xyz 0 2
|  5>  C     -3.9303136540    -19.4023643957    -11.4070023796
|  6>  H     -4.6357568271    -19.0907557712    -10.5814178990
|  7>  H     -4.3566480510    -20.1054956350    -12.0544211326
|  8>  H     -2.9403724777    -18.9306730380    -11.5785547133
|  9> *
| 10> 
| 11> %EPRNMR
| 12>         GTENSOR   TRUE
| 13>         NUCLEI    = ALL H {AISO, ADIP, AORB}
| 14>         NUCLEI    = ALL C {AISO, ADIP, AORB}
| 15> END
| 16> 
| 17> 
| 18>                          ****END OF INPUT****
================================================================================

                       ****************************
                       * Single Point Calculation *
                       ****************************

---------------------------------
CARTESIAN COORDINATES (ANGSTROEM)
---------------------------------
  C     -3.930314  -19.402364  -11.407002
  H     -4.635757  -19.090756  -10.581418
  H     -4.356648  -20.105496  -12.054421
  H     -2.940372  -18.930673  -11.578555

----------------------------
CARTESIAN COORDINATES (A.U.)
----------------------------
  NO LB      ZA    FRAG     MASS         X           Y           Z
   0 C     6.0000    0    12.011   -7.427216  -36.665155  -21.556111
   1 H     1.0000    0     1.008   -8.760311  -36.076300  -19.995982
   2 H     1.0000    0     1.008   -8.232872  -37.993881  -22.779555
   3 H     1.0000    0     1.008   -5.556499  -35.773788  -21.880297

--------------------------------
INTERNAL COORDINATES (ANGSTROEM)
--------------------------------
 C      0   0   0     0.000000000000     0.00000000     0.00000000
 H      1   0   0     1.129752070121     0.00000000     0.00000000
 H      1   2   0     1.046568487716   112.51968348     0.00000000
 H      1   2   3     1.109912822100   123.54970204   173.49859160

---------------------------
INTERNAL COORDINATES (A.U.)
---------------------------
 C      0   0   0     0.000000000000     0.00000000     0.00000000
 H      1   0   0     2.134922011760     0.00000000     0.00000000
 H      1   2   0     1.977727822176   112.51968348     0.00000000
 H      1   2   3     2.097431266296   123.54970204   173.49859160

---------------------
BASIS SET INFORMATION
---------------------
There are 2 groups of distinct atoms

 Group   1 Type C   : 12s8p2d1f contracted to 8s5p2d1f pattern {51111111/41111/11/1}
 Group   2 Type H   : 7s2p contracted to 5s2p pattern {31111/11}

Atom   0C    basis set group =>   1
Atom   1H    basis set group =>   2
Atom   2H    basis set group =>   2
Atom   3H    basis set group =>   2
---------------------------------
AUXILIARY/J BASIS SET INFORMATION
---------------------------------
There are 2 groups of distinct atoms

 Group   1 Type C   : 20s17p16d8f3g contracted to 20s17p16d8f3g pattern {11111111111111111111/11111111111111111/1111111111111111/11111111/111}
 Group   2 Type H   : 17s7p3d contracted to 17s7p3d pattern {11111111111111111/1111111/111}

Atom   0C    basis set group =>   1
Atom   1H    basis set group =>   2
Atom   2H    basis set group =>   2
Atom   3H    basis set group =>   2
---------------------------------
AUXILIARY/C BASIS SET INFORMATION
---------------------------------
There are 2 groups of distinct atoms

 Group   1 Type C   : 20s17p16d8f3g contracted to 20s17p16d8f3g pattern {11111111111111111111/11111111111111111/1111111111111111/11111111/111}
 Group   2 Type H   : 17s7p3d contracted to 17s7p3d pattern {11111111111111111/1111111/111}

Atom   0C    basis set group =>   1
Atom   1H    basis set group =>   2
Atom   2H    basis set group =>   2
Atom   3H    basis set group =>   2
----------------------------------
AUXILIARY/JK BASIS SET INFORMATION
----------------------------------
There are 2 groups of distinct atoms

 Group   1 Type C   : 20s17p16d8f3g contracted to 20s17p16d8f3g pattern {11111111111111111111/11111111111111111/1111111111111111/11111111/111}
 Group   2 Type H   : 17s7p3d contracted to 17s7p3d pattern {11111111111111111/1111111/111}

Atom   0C    basis set group =>   1
Atom   1H    basis set group =>   2
Atom   2H    basis set group =>   2
Atom   3H    basis set group =>   2


           ************************************************************
           *        Program running with 4 parallel MPI-processes     *
           *              working on a common directory               *
           ************************************************************
------------------------------------------------------------------------------
                           ORCA GTO INTEGRAL CALCULATION
                           -- RI-GTO INTEGRALS CHOSEN --
------------------------------------------------------------------------------
------------------------------------------------------------------------------
                   ___                                                        
                  /   \      - P O W E R E D   B Y -                         
                 /     \                                                     
                 |  |  |   _    _      __       _____    __    __             
                 |  |  |  | |  | |    /  \     |  _  \  |  |  /  |          
                  \  \/   | |  | |   /    \    | | | |  |  | /  /          
                 / \  \   | |__| |  /  /\  \   | |_| |  |  |/  /          
                |  |  |   |  __  | /  /__\  \  |    /   |      \           
                |  |  |   | |  | | |   __   |  |    \   |  |\   \          
                \     /   | |  | | |  |  |  |  | |\  \  |  | \   \       
                 \___/    |_|  |_| |__|  |__|  |_| \__\ |__|  \__/        
                                                                              
                      - O R C A' S   B I G   F R I E N D -                    
                                      &                                       
                       - I N T E G R A L  F E E D E R -                       
                                                                              
 v1 FN, 2020, v2 2021                                                         
------------------------------------------------------------------------------


Reading SHARK input file /home/rwth0701/scratch/cs681498/orcajob__30556189-23co/4299.SHARKINP.tmp ... ok
----------------------
SHARK INTEGRAL PACKAGE
----------------------

Number of atoms                             ...      4
Number of basis functions                   ...     73
Number of shells                            ...     37
Maximum angular momentum                    ...      3
Integral batch strategy                     ... SHARK/LIBINT Hybrid
RI-J (if used) integral strategy            ... SPLIT-RIJ (Revised 2003 algorithm where possible)
Printlevel                                  ...      1
Contraction scheme used                     ... SEGMENTED contraction
Coulomb Range Separation                    ... NOT USED
Exchange Range Separation                   ... NOT USED
Finite Nucleus Model                        ... NOT USED
Auxiliary Coulomb fitting basis             ... AVAILABLE
   # of basis functions in Aux-J            ...    393
   # of shells in Aux-J                     ...    145
   Maximum angular momentum in Aux-J        ...      4
Auxiliary J/K fitting basis                 ... AVAILABLE
   # of basis functions in Aux-JK           ...    393
   # of shells in Aux-JK                    ...    145
   Maximum angular momentum in Aux-JK       ...      4
Auxiliary Correlation fitting basis         ... AVAILABLE
   # of basis functions in Aux-C            ...    393
   # of shells in Aux-C                     ...    145
   Maximum angular momentum in Aux-C        ...      4
Auxiliary 'external' fitting basis          ... NOT available
Integral threshold                          ...     1.000000e-10
Primitive cut-off                           ...     1.000000e-11
Primitive pair pre-selection threshold      ...     1.000000e-11

Calculating pre-screening integrals         ... done (  0.0 sec) Dimension = 37
Organizing shell pair data                  ... done (  0.0 sec)
Shell pair information
Total number of shell pairs                 ...       703
Shell pairs after pre-screening             ...       688
Total number of primitive shell pairs       ...      1300
Primitive shell pairs kept                  ...      1183
          la=0 lb=0:    261 shell pairs
          la=1 lb=0:    253 shell pairs
          la=1 lb=1:     66 shell pairs
          la=2 lb=0:     46 shell pairs
          la=2 lb=1:     22 shell pairs
          la=2 lb=2:      3 shell pairs
          la=3 lb=0:     23 shell pairs
          la=3 lb=1:     11 shell pairs
          la=3 lb=2:      2 shell pairs
          la=3 lb=3:      1 shell pairs

Calculating one electron integrals          ... done (  0.0 sec)
Calculating RI/J V-Matrix + Cholesky decomp.... done (  0.1 sec)
Calculating RI/JK V-Matrix + Cholesky decomp... done (  0.0 sec)
Calculating RI/C V-Matrix + Cholesky decomp.... done (  0.1 sec)
Calculating Nuclear repulsion               ... done (  0.0 sec) ENN=      9.543717224227 Eh

SHARK setup successfully completed in   0.6 seconds

Maximum memory used throughout the entire GTOINT-calculation: 13.7 MB


           ************************************************************
           *        Program running with 4 parallel MPI-processes     *
           *              working on a common directory               *
           ************************************************************
-------------------------------------------------------------------------------
                                 ORCA SCF
-------------------------------------------------------------------------------

------------
SCF SETTINGS
------------
Hamiltonian:
 Density Functional     Method          .... DFT(GTOs)
 Exchange Functional    Exchange        .... B88
   X-Alpha parameter    XAlpha          ....  0.666667
   Becke's b parameter  XBeta           ....  0.004200
 Correlation Functional Correlation     .... LYP
 LDA part of GGA corr.  LDAOpt          .... VWN-5
 Gradients option       PostSCFGGA      .... off
 Hybrid DFT is turned on
   Fraction HF Exchange ScalHFX         ....  0.200000
   Scaling of DF-GGA-X  ScalDFX         ....  0.720000
   Scaling of DF-GGA-C  ScalDFC         ....  0.810000
   Scaling of DF-LDA-C  ScalLDAC        ....  1.000000
   Perturbative correction              ....  0.000000
   Density functional embedding theory  .... OFF
   NL short-range parameter             ....  4.800000
 RI-approximation to the Coulomb term is turned on
   Number of AuxJ basis functions       .... 393
   RIJ-COSX (HFX calculated with COS-X)).... on


General Settings:
 Integral files         IntName         .... /home/rwth0701/scratch/cs681498/orcajob__30556189-23co/4299
 Hartree-Fock type      HFTyp           .... UHF
 Total Charge           Charge          ....    0
 Multiplicity           Mult            ....    2
 Number of Electrons    NEL             ....    9
 Basis Dimension        Dim             ....   73
 Nuclear Repulsion      ENuc            ....      9.5437172242 Eh

Convergence Acceleration:
 DIIS                   CNVDIIS         .... on
   Start iteration      DIISMaxIt       ....    12
   Startup error        DIISStart       ....  0.200000
   # of expansion vecs  DIISMaxEq       ....     5
   Bias factor          DIISBfac        ....   1.050
   Max. coefficient     DIISMaxC        ....  10.000
 Trust-Rad. Augm. Hess. CNVTRAH         .... auto
   Auto Start mean grad. ratio tolernc. ....  1.125000
   Auto Start start iteration           ....    20
   Auto Start num. interpolation iter.  ....    10
   Max. Number of Micro iterations      ....    16
   Max. Number of Macro iterations      .... Maxiter - #DIIS iter
   Number of Davidson start vectors     ....     2
   Converg. threshold I  (grad. norm)   ....   5.000e-05
   Converg. threshold II (energy diff.) ....   1.000e-06
   Grad. Scal. Fac. for Micro threshold ....   0.100
   Minimum threshold for Micro iter.    ....   0.010
   NR start threshold (gradient norm)   ....   0.001
   Initial trust radius                 ....   0.400
   Minimum AH scaling param. (alpha)    ....   1.000
   Maximum AH scaling param. (alpha)    .... 1000.000
   Orbital update algorithm             .... Taylor
   White noise on init. David. guess    .... on
   Maximum white noise                  ....   0.010
   Quad. conv. algorithm                .... NR
 SOSCF                  CNVSOSCF        .... off
 Level Shifting         CNVShift        .... on
   Level shift para.    LevelShift      ....    0.2500
   Turn off err/grad.   ShiftErr        ....    0.0010
 Zerner damping         CNVZerner       .... off
 Static damping         CNVDamp         .... on
   Fraction old density DampFac         ....    0.7000
   Max. Damping (<1)    DampMax         ....    0.9800
   Min. Damping (>=0)   DampMin         ....    0.0000
   Turn off err/grad.   DampErr         ....    0.1000
 Fernandez-Rico         CNVRico         .... off

SCF Procedure:
 Maximum # iterations   MaxIter         ....   125
 SCF integral mode      SCFMode         .... Direct
   Integral package                     .... SHARK and LIBINT hybrid scheme
 Reset frequency        DirectResetFreq ....    20
 Integral Threshold     Thresh          ....  1.000e-10 Eh
 Primitive CutOff       TCut            ....  1.000e-11 Eh

Convergence Tolerance:
 Convergence Check Mode ConvCheckMode   .... Total+1el-Energy
 Convergence forced     ConvForced      .... 0
 Energy Change          TolE            ....  1.000e-06 Eh
 1-El. energy change                    ....  1.000e-03 Eh
 DIIS Error             TolErr          ....  1.000e-06


Diagonalization of the overlap matrix:
Smallest eigenvalue                        ... 1.643e-03
Time for diagonalization                   ...    0.001 sec
Threshold for overlap eigenvalues          ... 1.000e-08
Number of eigenvalues below threshold      ... 0
Time for construction of square roots      ...    0.013 sec
Total time needed                          ...    0.018 sec

Time for model grid setup =    0.100 sec

------------------------------
INITIAL GUESS: MODEL POTENTIAL
------------------------------
Loading Hartree-Fock densities                     ... done
Calculating cut-offs                               ... done
Initializing the effective Hamiltonian             ... done
Setting up the integral package (SHARK)            ... done
Starting the Coulomb interaction                   ... done (   0.1 sec)
Reading the grid                                   ... done
Mapping shells                                     ... done
Starting the XC term evaluation                    ... done (   0.0 sec)
  promolecular density results
     # of electrons  =      8.998097548
     EX              =     -5.963901279
     EC              =     -0.259813031
     EX+EC           =     -6.223714310
Transforming the Hamiltonian                       ... done (   0.0 sec)
Diagonalizing the Hamiltonian                      ... done (   0.0 sec)
Back transforming the eigenvectors                 ... done (   0.0 sec)
Now organizing SCF variables                       ... done
                      ------------------
                      INITIAL GUESS DONE (   0.2 sec)
                      ------------------
-------------------
DFT GRID GENERATION
-------------------

General Integration Accuracy     IntAcc      ... 4.388
Radial Grid Type                 RadialGrid  ... OptM3 with GC (2021)
Angular Grid (max. ang.)         AngularGrid ... 4 (Lebedev-302)
Angular grid pruning method      GridPruning ... 4 (adaptive)
Weight generation scheme         WeightScheme... Becke
Basis function cutoff            BFCut       ... 1.0000e-10
Integration weight cutoff        WCut        ... 1.0000e-14
Angular grids for H and He will be reduced by one unit
Partially contracted basis set               ... off
Rotationally invariant grid construction     ... off

Total number of grid points                  ...    17063
Total number of batches                      ...      270
Average number of points per batch           ...       63
Average number of grid points per atom       ...     4266
Time for grid setup =    0.115 sec

--------------------
COSX GRID GENERATION
--------------------

GRIDX 1
-------
General Integration Accuracy     IntAcc      ... 3.816
Radial Grid Type                 RadialGrid  ... OptM3 with GC (2021)
Angular Grid (max. ang.)         AngularGrid ... 1 (Lebedev-50)
Angular grid pruning method      GridPruning ... 4 (adaptive)
Weight generation scheme         WeightScheme... Becke
Basis function cutoff            BFCut       ... 1.0000e-10
Integration weight cutoff        WCut        ... 1.0000e-14
Angular grids for H and He will be reduced by one unit
Partially contracted basis set               ... on
Rotationally invariant grid construction     ... off

Total number of grid points                  ...     2150
Total number of batches                      ...       35
Average number of points per batch           ...       61
Average number of grid points per atom       ...      538
UseSFitting                                  ... on

GRIDX 2
-------
General Integration Accuracy     IntAcc      ... 4.020
Radial Grid Type                 RadialGrid  ... OptM3 with GC (2021)
Angular Grid (max. ang.)         AngularGrid ... 2 (Lebedev-110)
Angular grid pruning method      GridPruning ... 4 (adaptive)
Weight generation scheme         WeightScheme... Becke
Basis function cutoff            BFCut       ... 1.0000e-10
Integration weight cutoff        WCut        ... 1.0000e-14
Angular grids for H and He will be reduced by one unit
Partially contracted basis set               ... on
Rotationally invariant grid construction     ... off

Total number of grid points                  ...     5065
Total number of batches                      ...       82
Average number of points per batch           ...       61
Average number of grid points per atom       ...     1266
UseSFitting                                  ... on

GRIDX 3
-------
General Integration Accuracy     IntAcc      ... 4.338
Radial Grid Type                 RadialGrid  ... OptM3 with GC (2021)
Angular Grid (max. ang.)         AngularGrid ... 3 (Lebedev-194)
Angular grid pruning method      GridPruning ... 4 (adaptive)
Weight generation scheme         WeightScheme... Becke
Basis function cutoff            BFCut       ... 1.0000e-10
Integration weight cutoff        WCut        ... 1.0000e-14
Angular grids for H and He will be reduced by one unit
Partially contracted basis set               ... on
Rotationally invariant grid construction     ... off

Total number of grid points                  ...    11752
Total number of batches                      ...      186
Average number of points per batch           ...       63
Average number of grid points per atom       ...     2938
UseSFitting                                  ... on

Time for X-Grid setup             =    0.244 sec

--------------
SCF ITERATIONS
--------------
ITER       Energy         Delta-E        Max-DP      RMS-DP      [F,P]     Damp
               ***  Starting incremental Fock matrix formation  ***
  0    -39.7844603648   0.000000000000 0.01491392  0.00048559  0.0853486 0.7000
  1    -39.8024635234  -0.018003158559 0.00933221  0.00036249  0.0435906 0.7000
                               ***Turning on DIIS***
  2    -39.8104099816  -0.007946458216 0.01606379  0.00063293  0.0174644 0.0000
  3    -39.8212753515  -0.010865369947 0.00667393  0.00027338  0.0255514 0.0000
  4    -39.8246219989  -0.003346647410 0.00257236  0.00007590  0.0046865 0.0000
  5    -39.8247578576  -0.000135858666 0.00090024  0.00003209  0.0013586 0.0000
  6    -39.8247756474  -0.000017789795 0.00051077  0.00002519  0.0005024 0.0000
               *** Restarting incremental Fock matrix formation ***
                                   *** Resetting DIIS ***
  7    -39.8247780391  -0.000002391692 0.00009000  0.00000295  0.0000832 0.0000
                 **** Energy Check signals convergence ****

               *****************************************************
               *                     SUCCESS                       *
               *           SCF CONVERGED AFTER   8 CYCLES          *
               *****************************************************

Old exchange energy                            =     -1.237887548 Eh
New exchange energy                            =     -1.237882632 Eh
Exchange energy change after final integration =      0.000004917 Eh
Total energy after final integration           =    -39.824773203 Eh
Final COS-X integration done in                =     0.181 sec

----------------
TOTAL SCF ENERGY
----------------

Total Energy       :          -39.82477320 Eh           -1083.68717 eV

Components:
Nuclear Repulsion  :            9.54371722 Eh             259.69775 eV
Electronic Energy  :          -49.36849043 Eh           -1343.38492 eV
One Electron Energy:          -71.40646860 Eh           -1943.06879 eV
Two Electron Energy:           22.03797817 Eh             599.68387 eV
Max COSX asymmetry :            0.00000006 Eh               0.00000 eV

Virial components:
Potential Energy   :          -79.39140778 Eh           -2160.35004 eV
Kinetic Energy     :           39.56663458 Eh            1076.66286 eV
Virial Ratio       :            2.00652415


DFT components:
N(Alpha)           :        5.000001262845 electrons
N(Beta)            :        4.000001667928 electrons
N(Total)           :        9.000002930772 electrons
E(X)               :       -4.900667869856 Eh       
E(C)               :       -0.308924847019 Eh       
E(XC)              :       -5.209592716875 Eh       
DFET-embed. en.    :        0.000000000000 Eh       

---------------
SCF CONVERGENCE
---------------

  Last Energy change         ...   -8.0860e-08  Tolerance :   1.0000e-06
  Last MAX-Density change    ...    0.0000e+00  Tolerance :   1.0000e-05
  Last RMS-Density change    ...    0.0000e+00  Tolerance :   1.0000e-06
  Last DIIS Error            ...    5.5486e-05  Tolerance :   1.0000e-06

             **** THE GBW FILE WAS UPDATED (/home/rwth0701/scratch/cs681498/orcajob__30556189-23co/4299.gbw) ****
             **** DENSITY /home/rwth0701/scratch/cs681498/orcajob__30556189-23co/4299.scfp WAS UPDATED ****
             **** ENERGY FILE WAS UPDATED (/home/rwth0701/scratch/cs681498/orcajob__30556189-23co/4299.en.tmp) ****
----------------------
UHF SPIN CONTAMINATION
----------------------

Warning: in a DFT calculation there is little theoretical justification to 
         calculate <S**2> as in Hartree-Fock theory. We will do it anyways
         but you should keep in mind that the values have only limited relevance

Expectation value of <S**2>     :     0.753791
Ideal value S*(S+1) for S=0.5   :     0.750000
Deviation                       :     0.003791

             **** THE GBW FILE WAS UPDATED (/home/rwth0701/scratch/cs681498/orcajob__30556189-23co/4299.gbw) ****
             **** DENSITY /home/rwth0701/scratch/cs681498/orcajob__30556189-23co/4299.scfp WAS UPDATED ****
----------------
ORBITAL ENERGIES
----------------
                 SPIN UP ORBITALS
  NO   OCC          E(Eh)            E(eV) 
   0   1.0000     -10.188669      -277.2478 
   1   1.0000      -0.684459       -18.6251 
   2   1.0000      -0.429728       -11.6935 
   3   1.0000      -0.408572       -11.1178 
   4   1.0000      -0.235143        -6.3986 
   5   0.0000       0.000317         0.0086 
   6   0.0000       0.035550         0.9674 
   7   0.0000       0.037846         1.0298 
   8   0.0000       0.047401         1.2899 
   9   0.0000       0.084015         2.2862 
  10   0.0000       0.088552         2.4096 
  11   0.0000       0.098686         2.6854 
  12   0.0000       0.220632         6.0037 
  13   0.0000       0.225713         6.1420 
  14   0.0000       0.246262         6.7011 
  15   0.0000       0.276020         7.5109 
  16   0.0000       0.293541         7.9877 
  17   0.0000       0.307914         8.3788 
  18   0.0000       0.343392         9.3442 
  19   0.0000       0.547570        14.9001 
  20   0.0000       0.565259        15.3815 
  21   0.0000       0.738673        20.1003 
  22   0.0000       0.747712        20.3463 
  23   0.0000       0.770009        20.9530 
  24   0.0000       0.821608        22.3571 
  25   0.0000       0.869380        23.6570 
  26   0.0000       0.902953        24.5706 
  27   0.0000       0.936242        25.4764 
  28   0.0000       0.959930        26.1210 
  29   0.0000       1.060352        28.8536 
  30   0.0000       1.061521        28.8854 
  31   0.0000       1.106795        30.1174 
  32   0.0000       1.165307        31.7096 
  33   0.0000       1.170116        31.8405 
  34   0.0000       1.449055        39.4308 
  35   0.0000       1.466325        39.9007 
  36   0.0000       1.490784        40.5663 
  37   0.0000       1.693845        46.0919 
  38   0.0000       1.734344        47.1939 
  39   0.0000       1.746212        47.5169 
  40   0.0000       2.719891        74.0120 
  41   0.0000       2.737300        74.4857 
  42   0.0000       2.882729        78.4431 
  43   0.0000       2.893873        78.7463 
  44   0.0000       2.919769        79.4509 
  45   0.0000       2.974002        80.9267 
  46   0.0000       2.988397        81.3184 
  47   0.0000       3.149181        85.6936 
  48   0.0000       3.172027        86.3152 
  49   0.0000       3.248731        88.4025 
  50   0.0000       3.260830        88.7317 
  51   0.0000       3.710154       100.9584 
  52   0.0000       3.721418       101.2649 
  53   0.0000       3.761562       102.3573 
  54   0.0000       3.910723       106.4162 
  55   0.0000       3.934790       107.0711 
  56   0.0000       4.029038       109.6357 
  57   0.0000       4.112347       111.9027 
  58   0.0000       4.140186       112.6602 
  59   0.0000       4.145855       112.8144 
  60   0.0000       4.602002       125.2268 
  61   0.0000       5.001599       136.1004 
  62   0.0000       5.269004       143.3769 
  63   0.0000       5.412341       147.2773 
  64   0.0000       5.540672       150.7694 
  65   0.0000       6.031124       164.1152 
  66   0.0000       6.127410       166.7353 
  67   0.0000       7.706663       209.7090 
  68   0.0000      29.051221       790.5239 
  69   0.0000      37.080701      1009.0172 
  70   0.0000      37.198660      1012.2270 
  71   0.0000      37.230844      1013.1028 
  72   0.0000     133.504225      3632.8346 

                 SPIN DOWN ORBITALS
  NO   OCC          E(Eh)            E(eV) 
   0   1.0000     -10.174137      -276.8524 
   1   1.0000      -0.644949       -17.5500 
   2   1.0000      -0.420394       -11.4395 
   3   1.0000      -0.399171       -10.8620 
   4   0.0000      -0.077364        -2.1052 
   5   0.0000       0.003612         0.0983 
   6   0.0000       0.035239         0.9589 
   7   0.0000       0.037477         1.0198 
   8   0.0000       0.060688         1.6514 
   9   0.0000       0.087156         2.3716 
  10   0.0000       0.090089         2.4515 
  11   0.0000       0.101250         2.7552 
  12   0.0000       0.221651         6.0314 
  13   0.0000       0.227120         6.1802 
  14   0.0000       0.265112         7.2141 
  15   0.0000       0.298878         8.1329 
  16   0.0000       0.310350         8.4450 
  17   0.0000       0.314806         8.5663 
  18   0.0000       0.355799         9.6818 
  19   0.0000       0.573318        15.6008 
  20   0.0000       0.592589        16.1252 
  21   0.0000       0.739965        20.1355 
  22   0.0000       0.749446        20.3935 
  23   0.0000       0.796118        21.6635 
  24   0.0000       0.820066        22.3151 
  25   0.0000       0.874524        23.7970 
  26   0.0000       0.907835        24.7034 
  27   0.0000       0.952812        25.9273 
  28   0.0000       0.978393        26.6234 
  29   0.0000       1.081541        29.4302 
  30   0.0000       1.118328        30.4312 
  31   0.0000       1.132260        30.8104 
  32   0.0000       1.177152        32.0319 
  33   0.0000       1.183415        32.2023 
  34   0.0000       1.460848        39.7517 
  35   0.0000       1.481625        40.3171 
  36   0.0000       1.500518        40.8312 
  37   0.0000       1.701867        46.3102 
  38   0.0000       1.739901        47.3451 
  39   0.0000       1.754801        47.7506 
  40   0.0000       2.760569        75.1189 
  41   0.0000       2.777717        75.5855 
  42   0.0000       2.887975        78.5858 
  43   0.0000       2.923982        79.5656 
  44   0.0000       2.958968        80.5176 
  45   0.0000       2.997944        81.5782 
  46   0.0000       3.036091        82.6162 
  47   0.0000       3.201408        87.1147 
  48   0.0000       3.222887        87.6992 
  49   0.0000       3.306466        89.9735 
  50   0.0000       3.319462        90.3271 
  51   0.0000       3.716269       101.1248 
  52   0.0000       3.761041       102.3431 
  53   0.0000       3.775127       102.7264 
  54   0.0000       3.910983       106.4232 
  55   0.0000       3.947603       107.4197 
  56   0.0000       4.045906       110.0947 
  57   0.0000       4.115899       111.9993 
  58   0.0000       4.143560       112.7520 
  59   0.0000       4.170481       113.4846 
  60   0.0000       4.602137       125.2305 
  61   0.0000       5.023231       136.6891 
  62   0.0000       5.268312       143.3581 
  63   0.0000       5.410368       147.2236 
  64   0.0000       5.538252       150.7035 
  65   0.0000       6.032981       164.1658 
  66   0.0000       6.130594       166.8219 
  67   0.0000       7.741675       210.6617 
  68   0.0000      29.078085       791.2549 
  69   0.0000      37.068364      1008.6815 
  70   0.0000      37.186057      1011.8840 
  71   0.0000      37.219791      1012.8020 
  72   0.0000     133.512162      3633.0506 

                    ********************************
                    * MULLIKEN POPULATION ANALYSIS *
                    ********************************

--------------------------------------------
MULLIKEN ATOMIC CHARGES AND SPIN POPULATIONS
--------------------------------------------
   0 C :   -0.427809    1.105822
   1 H :    0.136361   -0.037880
   2 H :    0.144262   -0.032599
   3 H :    0.147186   -0.035343
Sum of atomic charges         :   -0.0000000
Sum of atomic spin populations:    1.0000000

-----------------------------------------------------
MULLIKEN REDUCED ORBITAL CHARGES AND SPIN POPULATIONS
-----------------------------------------------------
CHARGE
  0 C s       :     3.341258  s :     3.341258
      pz      :     1.024150  p :     3.059342
      px      :     1.027146
      py      :     1.008046
      dz2     :     0.002280  d :     0.024270
      dxz     :     0.007449
      dyz     :     0.005289
      dx2y2   :     0.003105
      dxy     :     0.006148
      f0      :     0.000176  f :     0.002939
      f+1     :     0.000587
      f-1     :     0.000355
      f+2     :     0.000343
      f-2     :     0.000644
      f+3     :     0.000209
      f-3     :     0.000625
  1 H s       :     0.838788  s :     0.838788
      pz      :     0.008846  p :     0.024851
      px      :     0.008009
      py      :     0.007996
  2 H s       :     0.827426  s :     0.827426
      pz      :     0.009492  p :     0.028312
      px      :     0.008369
      py      :     0.010451
  3 H s       :     0.826614  s :     0.826614
      pz      :     0.007648  p :     0.026200
      px      :     0.009627
      py      :     0.008925

SPIN
  0 C s       :     0.068536  s :     0.068536
      pz      :     0.338312  p :     1.041612
      px      :     0.188663
      py      :     0.514637
      dz2     :     0.000277  d :    -0.002993
      dxz     :    -0.000159
      dyz     :    -0.001796
      dx2y2   :    -0.000201
      dxy     :    -0.001114
      f0      :    -0.000086  f :    -0.001332
      f+1     :    -0.000129
      f-1     :    -0.000327
      f+2     :    -0.000247
      f-2     :    -0.000133
      f+3     :    -0.000097
      f-3     :    -0.000313
  1 H s       :    -0.047063  s :    -0.047063
      pz      :     0.003136  p :     0.009184
      px      :     0.001332
      py      :     0.004716
  2 H s       :    -0.043121  s :    -0.043121
      pz      :     0.003213  p :     0.010522
      px      :     0.001489
      py      :     0.005821
  3 H s       :    -0.045539  s :    -0.045539
      pz      :     0.003229  p :     0.010195
      px      :     0.001804
      py      :     0.005162


                     *******************************
                     * LOEWDIN POPULATION ANALYSIS *
                     *******************************

-------------------------------------------
LOEWDIN ATOMIC CHARGES AND SPIN POPULATIONS
-------------------------------------------
   0 C :   -0.161778    0.913827
   1 H :    0.069428    0.023231
   2 H :    0.029482    0.036916
   3 H :    0.062868    0.026025

----------------------------------------------------
LOEWDIN REDUCED ORBITAL CHARGES AND SPIN POPULATIONS
----------------------------------------------------
CHARGE
  0 C s       :     2.893021  s :     2.893021
      pz      :     1.062481  p :     3.170562
      px      :     1.096397
      py      :     1.011684
      dz2     :     0.011782  d :     0.090745
      dxz     :     0.029169
      dyz     :     0.015810
      dx2y2   :     0.012503
      dxy     :     0.021481
      f0      :     0.000579  f :     0.007450
      f+1     :     0.001267
      f-1     :     0.000897
      f+2     :     0.001124
      f-2     :     0.001475
      f+3     :     0.000586
      f-3     :     0.001522
  1 H s       :     0.799345  s :     0.799345
      pz      :     0.051880  p :     0.131227
      px      :     0.043737
      py      :     0.035610
  2 H s       :     0.812048  s :     0.812048
      pz      :     0.055852  p :     0.158470
      px      :     0.043630
      py      :     0.058988
  3 H s       :     0.800876  s :     0.800876
      pz      :     0.032924  p :     0.136256
      px      :     0.061865
      py      :     0.041467

SPIN
  0 C s       :     0.020640  s :     0.020640
      pz      :     0.293007  p :     0.902007
      px      :     0.152701
      py      :     0.456299
      dz2     :    -0.000431  d :    -0.007498
      dxz     :    -0.001876
      dyz     :    -0.002150
      dx2y2   :    -0.000926
      dxy     :    -0.002115
      f0      :    -0.000071  f :    -0.001322
      f+1     :    -0.000195
      f-1     :    -0.000277
      f+2     :    -0.000217
      f-2     :    -0.000163
      f+3     :    -0.000065
      f-3     :    -0.000333
  1 H s       :    -0.018757  s :    -0.018757
      pz      :     0.014461  p :     0.041989
      px      :     0.008108
      py      :     0.019420
  2 H s       :    -0.015343  s :    -0.015343
      pz      :     0.016911  p :     0.052259
      px      :     0.008871
      py      :     0.026477
  3 H s       :    -0.018536  s :    -0.018536
      pz      :     0.013172  p :     0.044561
      px      :     0.010295
      py      :     0.021094


                      *****************************
                      * MAYER POPULATION ANALYSIS *
                      *****************************

  NA   - Mulliken gross atomic population
  ZA   - Total nuclear charge
  QA   - Mulliken gross atomic charge
  VA   - Mayer's total valence
  BVA  - Mayer's bonded valence
  FA   - Mayer's free valence

  ATOM       NA         ZA         QA         VA         BVA        FA
  0 C      6.4278     6.0000    -0.4278     3.8723     2.9261     0.9462
  1 H      0.8636     1.0000     0.1364     0.9823     0.9801     0.0022
  2 H      0.8557     1.0000     0.1443     0.9801     0.9783     0.0019
  3 H      0.8528     1.0000     0.1472     0.9852     0.9831     0.0021

  Mayer bond orders larger than 0.100000
B(  0-C ,  1-H ) :   0.9764 B(  0-C ,  2-H ) :   0.9757 B(  0-C ,  3-H ) :   0.9740 


-------
TIMINGS
-------

Total SCF time: 0 days 0 hours 0 min 5 sec 

Total time                  ....       5.396 sec
Sum of individual times     ....       4.787 sec  ( 88.7%)

Fock matrix formation       ....       4.002 sec  ( 74.2%)
  Split-RI-J                ....       0.548 sec  ( 13.7% of F)
  Chain of spheres X        ....       0.964 sec  ( 24.1% of F)
  XC integration            ....       1.459 sec  ( 36.4% of F)
    Basis function eval.    ....       0.114 sec  (  7.8% of XC)
    Density eval.           ....       0.109 sec  (  7.5% of XC)
    XC-Functional eval.     ....       0.093 sec  (  6.4% of XC)
    XC-Potential eval.      ....       0.162 sec  ( 11.1% of XC)
Diagonalization             ....       0.054 sec  (  1.0%)
Density matrix formation    ....       0.004 sec  (  0.1%)
Population analysis         ....       0.062 sec  (  1.1%)
Initial guess               ....       0.127 sec  (  2.4%)
Orbital Transformation      ....       0.000 sec  (  0.0%)
Orbital Orthonormalization  ....       0.000 sec  (  0.0%)
DIIS solution               ....       0.079 sec  (  1.5%)
Grid generation             ....       0.459 sec  (  8.5%)

Maximum memory used throughout the entire SCF-calculation: 59.0 MB

-------------------------   --------------------
FINAL SINGLE POINT ENERGY       -39.824773203108
-------------------------   --------------------

   --->>> g-tensor requested, so NeedSOC=true

                            ***************************************
                            *     ORCA property calculations      *
                            ***************************************

                                    ---------------------
                                    Active property flags
                                    ---------------------
   (+) Dipole Moment
   (+) g-tensor
   (+) Nuclear properties (Hyperfine,Quadrupole)
   (+) Spin-Orbit Integrals are needed


------------------------------------------------------------------------------
                       ORCA ELECTRIC PROPERTIES CALCULATION
------------------------------------------------------------------------------

Dipole Moment Calculation                       ... on
Quadrupole Moment Calculation                   ... off
Polarizability Calculation                      ... off
GBWName                                         ... /home/rwth0701/scratch/cs681498/orcajob__30556189-23co/4299.gbw
Electron density                                ... /home/rwth0701/scratch/cs681498/orcajob__30556189-23co/4299.scfp
The origin for moment calculation is the CENTER OF MASS  = (-7.445186, -36.654998 -21.555273)

-------------
DIPOLE MOMENT
-------------
                                X             Y             Z
Electronic contribution:      0.08629      -0.04811      -0.03010
Nuclear contribution   :     -0.10630       0.06008       0.00496
                        -----------------------------------------
Total Dipole Moment    :     -0.02002       0.01198      -0.02515
                        -----------------------------------------
Magnitude (a.u.)       :      0.03430
Magnitude (Debye)      :      0.08719



--------------------
Rotational spectrum 
--------------------
 
Rotational constants in cm-1:    10.305302     8.437054     4.647442 
Rotational constants in MHz : 308945.170962 252936.522164 139326.799080 

 Dipole components along the rotational axes: 
x,y,z [a.u.] :    -0.007096    -0.012927    -0.030969 
x,y,z [Debye]:    -0.018037    -0.032858    -0.078716 

 


           ************************************************************
           *        Program running with 4 parallel MPI-processes     *
           *              working on a common directory               *
           ************************************************************
------------------------------------------------------------------------------
                         ORCA SPIN-ORBIT COUPLING CALCULATION
------------------------------------------------------------------------------

GBW file                                    ... /home/rwth0701/scratch/cs681498/orcajob__30556189-23co/4299.gbw
Input density                               ... /home/rwth0701/scratch/cs681498/orcajob__30556189-23co/4299.scfp
Output integrals                            ... /home/rwth0701/scratch/cs681498/orcajob__30556189-23co/4299
Operator type                               ... Mean-field/Effective potential
   One-Electron Terms                       ... 1
   Coulomb Contribution                     ... 3
   Exchange Contribution                    ... 3
   Correlation Contribution                 ... 0
   Maximum number of centers                ... 4
SHARK 2-electron RIJ-SOMF                   ... done (  0.2 sec)
SHARK 1-electron  MaxCenter=4               ... done (  0.0 sec)
SHARK 2-electron DoJ,X=0,1 MaxCenter=1      ... done (  0.1 sec)

Maximum memory used throughout the entire SOC-calculation: 11.3 MB
Total time for SOC:  2.201


           ************************************************************
           *        Program running with 4 parallel MPI-processes     *
           *              working on a common directory               *
           ************************************************************
------------------------------------------------------------------------------
                                ORCA EPR/NMR CALCULATION
------------------------------------------------------------------------------

GBWName                      ... /home/rwth0701/scratch/cs681498/orcajob__30556189-23co/4299.gbw
Electron density             ... /home/rwth0701/scratch/cs681498/orcajob__30556189-23co/4299.scfp
Spin density                 ... /home/rwth0701/scratch/cs681498/orcajob__30556189-23co/4299.scfr
Spin-orbit integrals         ... /home/rwth0701/scratch/cs681498/orcajob__30556189-23co/4299
Treatment of gauge           ... GIAO (approximations 1/2el = 0,0)
Details of the CP(SCF) procedure:
       Solver   = POPLE   
       MaxIter  =    64   
       Tolerance=    1.000e-03
       COSX Grid=     1   
       Op-0     =   0-  4 =>   5- 72
       Op-1     =   0-  3 =>   4- 72
Multiplicity                 ... 2
g-tensor                     ... 1
NMR chemical shifts          ... 0
NMR spin-spin couplings      ... 0
NMR spectrum                 ... 0
Number of nuclei for epr/nmr ... 4
   Nucleus:   1H 
       Hyperfine : Isotope=    1 I=   0.500 P= 533.551
       Quadrupole: Isotope=    2 I=   1.000 Q=   0.003
       Spin-Orbit: Zeff=   1.000
       Nuclear Spin-Spin: Gn=   0.000
       EPRNMR Input: 
       rho(0)=N f(grad)=N a(iso)=Y a(dip)=Y a(orb)=Y sigma(nmr)=N spin-spin(nmr)=all-N,DSO-N,PSO-N,FC-N,SD-N
   Nucleus:   2H 
       Hyperfine : Isotope=    1 I=   0.500 P= 533.551
       Quadrupole: Isotope=    2 I=   1.000 Q=   0.003
       Spin-Orbit: Zeff=   1.000
       Nuclear Spin-Spin: Gn=   0.000
       EPRNMR Input: 
       rho(0)=N f(grad)=N a(iso)=Y a(dip)=Y a(orb)=Y sigma(nmr)=N spin-spin(nmr)=all-N,DSO-N,PSO-N,FC-N,SD-N
   Nucleus:   3H 
       Hyperfine : Isotope=    1 I=   0.500 P= 533.551
       Quadrupole: Isotope=    2 I=   1.000 Q=   0.003
       Spin-Orbit: Zeff=   1.000
       Nuclear Spin-Spin: Gn=   0.000
       EPRNMR Input: 
       rho(0)=N f(grad)=N a(iso)=Y a(dip)=Y a(orb)=Y sigma(nmr)=N spin-spin(nmr)=all-N,DSO-N,PSO-N,FC-N,SD-N
   Nucleus:   0C 
       Hyperfine : Isotope=   13 I=   0.500 P= 134.190
       Quadrupole: Isotope=   13 I=   0.500 Q=   0.000
       Spin-Orbit: Zeff=   3.600
       Nuclear Spin-Spin: Gn=   0.000
       EPRNMR Input: 
       rho(0)=N f(grad)=N a(iso)=Y a(dip)=Y a(orb)=Y sigma(nmr)=N spin-spin(nmr)=all-N,DSO-N,PSO-N,FC-N,SD-N
Forming RHS of the CP-SCF equations         ... 
Calculating right hand sides for GIAO treatment        ... 
  Entering RightHandSide GIAO. ScalHFX=    0.2000 NeedHFX=1
     -> 1-electron GIAO integrals will be done analytically
     -> RIJCOSX used in SCF. Same chosen for GIAO calculation.
     Making grid for GIAO integrations   ...

GRID GIAO
---------

General Integration Accuracy     IntAcc      ... 4.388
Radial Grid Type                 RadialGrid  ... OptM3 with GC (2021)
Angular Grid (max. ang.)         AngularGrid ... 4 (Lebedev-302)
Angular grid pruning method      GridPruning ... 4 (adaptive)
Weight generation scheme         WeightScheme... Becke
Basis function cutoff            BFCut       ... 1.0000e-10
Integration weight cutoff        WCut        ... 1.0000e-14
Angular grids for H and He will be reduced by one unit
Partially contracted basis set               ... off
Rotationally invariant grid construction     ... off

Total number of grid points                  ...    17063
Total number of batches                      ...      270
Average number of points per batch           ...       63
Average number of grid points per atom       ...     4266

  One-electron GIAO integrals (SHARK)     ... done
  Calculating G(B)[P]                     ... (RI-J: SHARK-ok) (COSX-ok) (add-J+K:ok) => dG/dB done
  DFT XC-terms                            ... done
  Extracting occupied and virtual blocks  ... 
  Operator  0  NO=   5 NV=  68 
  Operator  1  NO=   4 NV=  69 
  Transforming and RHS contribution       ... done
  Adding eps_i * S(B)_ai terms            ... done
  Projecting overlap derivatives          ... done
  Building G[dS/dB_ij] (COSX)             ... done
  Transforming to MO basis                ... done
  Summing G[dS/dB_ij] into RHS contribs.  ... done

  GIAO profiling information: 
    Total GIAO time               ...       0.8 sec
       GIAO 1-electron integrals  ...       0.0 sec (  2.0%)
       GIAO G(dS/dB) terms        ...       0.1 sec ( 14.4%)
       GIAO RI-J                  ...       0.1 sec ( 13.7%)
       GIAO COSX                  ...       0.2 sec ( 19.0%)
       GIAO XC-terms              ...       0.3 sec ( 35.9%)

  GIAO right hand side done


------------------------------------------------------------------------------
                           ORCA CP-SCF CALCULATION
------------------------------------------------------------------------------

Input orbitals are from        ... /home/rwth0701/scratch/cs681498/orcajob__30556189-23co/4299.gbw
Input Perturbation             ... /home/rwth0701/scratch/cs681498/orcajob__30556189-23co/4299.pin.tmp
Wavefunction output            ... /home/rwth0701/scratch/cs681498/orcajob__30556189-23co/4299.pout.tmp
Perturbation mode              ... Imaginary perturbation
Solver                         ... POPLE
Max. number of iterations      ... 64
Convergence tolerance          ... 1.000e-03
Integral handling              ... Direct
DFT GridXC                     ... 1
COSX GridX                     ... 1
COSX IntAccX                   ... 3.067
COSX Algorithm                 ... Auto
Number of perturbations        ... 3
Number of operators            ... 2
Orbital ranges used for CP-SCF:
 Operator 0:  Orbitals   0...  4  to   5... 72
 Operator 1:  Orbitals   0...  3  to   4... 72
Variables per perturbation     ... 616
DFT calculation                         ... on
XC functional terms                     ... off
Hybrid DFT                              ... on
   Exchange mixing (SCF)                ...  0.200
   Exchange mixing (CP-SCF)             ...  0.200
   GGA exch. scaling(SCF)               ...  0.720
   GGA exch. scaling (CP-SCF)           ...  0.720
   GGA corr. scaling (SCF)              ...  0.810
   GGA corr. scaling (CP-SCF)           ...  0.810

CP-SCF GRID
-----------

General Integration Accuracy     IntAcc      ... 3.467
Radial Grid Type                 RadialGrid  ... OptM3 with GC (2021)
Angular Grid (max. ang.)         AngularGrid ... 1 (Lebedev-50)
Angular grid pruning method      GridPruning ... 4 (adaptive)
Weight generation scheme         WeightScheme... Becke
Basis function cutoff            BFCut       ... 1.0000e-10
Integration weight cutoff        WCut        ... 1.0000e-14
Angular grids for H and He will be reduced by one unit
Partially contracted basis set               ... off
Rotationally invariant grid construction     ... off

Total number of grid points                  ...     2338
Total number of batches                      ...       38
Average number of points per batch           ...       61
Average number of grid points per atom       ...      584

CP-SCF GRIDX
------------

General Integration Accuracy     IntAcc      ... 3.067
Radial Grid Type                 RadialGrid  ... OptM3 with GC (2021)
Angular Grid (max. ang.)         AngularGrid ... 1 (Lebedev-50)
Angular grid pruning method      GridPruning ... 4 (adaptive)
Weight generation scheme         WeightScheme... Becke
Basis function cutoff            BFCut       ... 1.0000e-10
Integration weight cutoff        WCut        ... 1.0000e-14
Angular grids for H and He will be reduced by one unit
Partially contracted basis set               ... on
Rotationally invariant grid construction     ... off

Total number of grid points                  ...     1077
Total number of batches                      ...       20
Average number of points per batch           ...       53
Average number of grid points per atom       ...      269

Memory available               ... 1014.6 MB
Memory needed per perturbation ...   0.4 MB
Perturbations treated per batch... 3
Number of batches              ... 1
     CP-SCF ITERATION   0:   1.5686e+00 (   0.1 sec   0/  3 done)
     CP-SCF ITERATION   1:   2.9479e-02 (   0.1 sec   0/  3 done)
     CP-SCF ITERATION   2:   2.3231e-03 (   0.1 sec   0/  3 done)
     CP-SCF ITERATION   3:   8.7643e-05 (   0.1 sec   3/  3 done)
                    *** THE CP-SCF HAS CONVERGED ***

Forming final perturbed densities           ... done
Transforming perturbed density to AO basis  ... done

Magnetic field perturbation calculated in  1.387 sec
GIAO: Diamagnetic terms      (analytic)     (SHARK) ... done
GIAO: 1el-Paramagnetic terms (analytic)     (SHARK) ... done

-------------------
ELECTRONIC G-MATRIX
-------------------

 The g-matrix: 
              2.0028023    0.0001870   -0.0001663
              0.0001971    2.0025512    0.0002610
             -0.0001609    0.0002504    2.0026628

 gel          2.0023193    2.0023193    2.0023193
 gRMC        -0.0001274   -0.0001274   -0.0001274
 gDSO(tot)    0.0000344    0.0000708    0.0000709
 gPSO(tot)    0.0000072    0.0006052    0.0006523
             ----------   ----------   ----------
 g(tot)       2.0022334    2.0028679    2.0029150 iso=  2.0026721
 Delta-g     -0.0000858    0.0005486    0.0005957 iso=  0.0003528
 Orientation: 
  X           0.4053239   -0.1225367    0.9059235
  Y          -0.7092130   -0.6674373    0.2270339
  Z           0.5768271   -0.7345149   -0.3574329

Notes:  (1) The g-matrix conforms to the "BgS" spin Hamiltonian convention. 
        (2) The principal values are square roots of the eigenvalues of g*gT.
        (3) Orientations are eigenvectors of g*gT written as column vectors.
        (4) Individual contributions are projections of the full matrices onto the eigenvectors of g*gT.
        (5) Tensor is right-handed.


-----------------------------------------
ELECTRIC AND MAGNETIC HYPERFINE STRUCTURE
-----------------------------------------

 -----------------------------------------------------------
 Nucleus   1H : A:ISTP=    1 I=  0.5 P=533.5514 MHz/au**3
                Q:ISTP=    2 I=  1.0 Q=  0.0029 barn     
 -----------------------------------------------------------
 Solving for nuclear perturbation:
Forming RHS of the CP-SCF equations         ... 
Calc. nucleus orbit integrals (SHARK)       ... done

------------------------------------------------------------------------------
                           ORCA CP-SCF CALCULATION
------------------------------------------------------------------------------

Input orbitals are from        ... /home/rwth0701/scratch/cs681498/orcajob__30556189-23co/4299.gbw
Input Perturbation             ... /home/rwth0701/scratch/cs681498/orcajob__30556189-23co/4299.pin.tmp
Wavefunction output            ... /home/rwth0701/scratch/cs681498/orcajob__30556189-23co/4299.pout.tmp
Perturbation mode              ... Imaginary perturbation
Solver                         ... POPLE
Max. number of iterations      ... 64
Convergence tolerance          ... 1.000e-03
Integral handling              ... Direct
DFT GridXC                     ... 1
COSX GridX                     ... 1
COSX IntAccX                   ... 3.067
COSX Algorithm                 ... Auto
Number of perturbations        ... 3
Number of operators            ... 2
Orbital ranges used for CP-SCF:
 Operator 0:  Orbitals   0...  4  to   5... 72
 Operator 1:  Orbitals   0...  3  to   4... 72
Variables per perturbation     ... 616
DFT calculation                         ... on
XC functional terms                     ... off
Hybrid DFT                              ... on
   Exchange mixing (SCF)                ...  0.200
   Exchange mixing (CP-SCF)             ...  0.200
   GGA exch. scaling(SCF)               ...  0.720
   GGA exch. scaling (CP-SCF)           ...  0.720
   GGA corr. scaling (SCF)              ...  0.810
   GGA corr. scaling (CP-SCF)           ...  0.810

CP-SCF GRID
-----------

General Integration Accuracy     IntAcc      ... 3.467
Radial Grid Type                 RadialGrid  ... OptM3 with GC (2021)
Angular Grid (max. ang.)         AngularGrid ... 1 (Lebedev-50)
Angular grid pruning method      GridPruning ... 4 (adaptive)
Weight generation scheme         WeightScheme... Becke
Basis function cutoff            BFCut       ... 1.0000e-10
Integration weight cutoff        WCut        ... 1.0000e-14
Angular grids for H and He will be reduced by one unit
Partially contracted basis set               ... off
Rotationally invariant grid construction     ... off

Total number of grid points                  ...     2338
Total number of batches                      ...       38
Average number of points per batch           ...       61
Average number of grid points per atom       ...      584

CP-SCF GRIDX
------------

General Integration Accuracy     IntAcc      ... 3.067
Radial Grid Type                 RadialGrid  ... OptM3 with GC (2021)
Angular Grid (max. ang.)         AngularGrid ... 1 (Lebedev-50)
Angular grid pruning method      GridPruning ... 4 (adaptive)
Weight generation scheme         WeightScheme... Becke
Basis function cutoff            BFCut       ... 1.0000e-10
Integration weight cutoff        WCut        ... 1.0000e-14
Angular grids for H and He will be reduced by one unit
Partially contracted basis set               ... on
Rotationally invariant grid construction     ... off

Total number of grid points                  ...     1077
Total number of batches                      ...       20
Average number of points per batch           ...       53
Average number of grid points per atom       ...      269

Memory available               ... 968.0 MB
Memory needed per perturbation ...   0.4 MB
Perturbations treated per batch... 3
Number of batches              ... 1
     CP-SCF ITERATION   0:   5.2435e-02 (   0.1 sec   0/  3 done)
     CP-SCF ITERATION   1:   2.2220e-03 (   0.1 sec   0/  3 done)
     CP-SCF ITERATION   2:   1.7314e-04 (   0.1 sec   3/  3 done)
                    *** THE CP-SCF HAS CONVERGED ***

Forming final perturbed densities           ... done
Transforming perturbed density to AO basis  ... done

 Raw HFC matrix (all values in MHz): 
 -----------------------------------
               -68.0995             -22.3488             -25.4923
               -22.3484             -78.6920               0.0370
               -25.4919               0.0372             -50.5630

 A(FC)         -65.7987             -65.7987             -65.7987
 A(SD)          37.2241              -0.9350             -36.2892
 A(ORB+DIA)      0.0131              -0.0007               0.0292    A(PC) =   0.0139
 A(ORB)          0.0087               0.0004               0.0279    A(PC) =   0.0124
 A(DIA)          0.0044              -0.0011               0.0012    A(PC) =   0.0015
             ----------           ----------           ----------
 A(Tot)        -28.5614             -66.7343            -102.0587    A(iso)=  -65.7848
 Orientation: 
  X          -0.6269962            0.3786874            0.6807875
  Y           0.2800581           -0.7059049            0.6505887
  Z           0.7269410            0.5985767            0.3365452

Notes:  (1) The A matrix conforms to the "SAI" spin Hamiltonian convention.
        (2) Tensor is right-handed.

 -----------------------------------------------------------
 Nucleus   2H : A:ISTP=    1 I=  0.5 P=533.5514 MHz/au**3
                Q:ISTP=    2 I=  1.0 Q=  0.0029 barn     
 -----------------------------------------------------------
 Solving for nuclear perturbation:
Forming RHS of the CP-SCF equations         ... 
Calc. nucleus orbit integrals (SHARK)       ... done

------------------------------------------------------------------------------
                           ORCA CP-SCF CALCULATION
------------------------------------------------------------------------------

Input orbitals are from        ... /home/rwth0701/scratch/cs681498/orcajob__30556189-23co/4299.gbw
Input Perturbation             ... /home/rwth0701/scratch/cs681498/orcajob__30556189-23co/4299.pin.tmp
Wavefunction output            ... /home/rwth0701/scratch/cs681498/orcajob__30556189-23co/4299.pout.tmp
Perturbation mode              ... Imaginary perturbation
Solver                         ... POPLE
Max. number of iterations      ... 64
Convergence tolerance          ... 1.000e-03
Integral handling              ... Direct
DFT GridXC                     ... 1
COSX GridX                     ... 1
COSX IntAccX                   ... 3.067
COSX Algorithm                 ... Auto
Number of perturbations        ... 3
Number of operators            ... 2
Orbital ranges used for CP-SCF:
 Operator 0:  Orbitals   0...  4  to   5... 72
 Operator 1:  Orbitals   0...  3  to   4... 72
Variables per perturbation     ... 616
DFT calculation                         ... on
XC functional terms                     ... off
Hybrid DFT                              ... on
   Exchange mixing (SCF)                ...  0.200
   Exchange mixing (CP-SCF)             ...  0.200
   GGA exch. scaling(SCF)               ...  0.720
   GGA exch. scaling (CP-SCF)           ...  0.720
   GGA corr. scaling (SCF)              ...  0.810
   GGA corr. scaling (CP-SCF)           ...  0.810

CP-SCF GRID
-----------

General Integration Accuracy     IntAcc      ... 3.467
Radial Grid Type                 RadialGrid  ... OptM3 with GC (2021)
Angular Grid (max. ang.)         AngularGrid ... 1 (Lebedev-50)
Angular grid pruning method      GridPruning ... 4 (adaptive)
Weight generation scheme         WeightScheme... Becke
Basis function cutoff            BFCut       ... 1.0000e-10
Integration weight cutoff        WCut        ... 1.0000e-14
Angular grids for H and He will be reduced by one unit
Partially contracted basis set               ... off
Rotationally invariant grid construction     ... off

Total number of grid points                  ...     2338
Total number of batches                      ...       38
Average number of points per batch           ...       61
Average number of grid points per atom       ...      584

CP-SCF GRIDX
------------

General Integration Accuracy     IntAcc      ... 3.067
Radial Grid Type                 RadialGrid  ... OptM3 with GC (2021)
Angular Grid (max. ang.)         AngularGrid ... 1 (Lebedev-50)
Angular grid pruning method      GridPruning ... 4 (adaptive)
Weight generation scheme         WeightScheme... Becke
Basis function cutoff            BFCut       ... 1.0000e-10
Integration weight cutoff        WCut        ... 1.0000e-14
Angular grids for H and He will be reduced by one unit
Partially contracted basis set               ... on
Rotationally invariant grid construction     ... off

Total number of grid points                  ...     1077
Total number of batches                      ...       20
Average number of points per batch           ...       53
Average number of grid points per atom       ...      269

Memory available               ... 967.8 MB
Memory needed per perturbation ...   0.4 MB
Perturbations treated per batch... 3
Number of batches              ... 1
     CP-SCF ITERATION   0:   6.0104e-02 (   0.1 sec   0/  3 done)
     CP-SCF ITERATION   1:   2.6444e-03 (   0.1 sec   0/  3 done)
     CP-SCF ITERATION   2:   2.1785e-04 (   0.1 sec   3/  3 done)
                    *** THE CP-SCF HAS CONVERGED ***

Forming final perturbed densities           ... done
Transforming perturbed density to AO basis  ... done

 Raw HFC matrix (all values in MHz): 
 -----------------------------------
               -84.5053               9.4289              30.5446
                 9.4286             -43.4322              15.6989
                30.5443              15.6989             -59.9458

 A(FC)         -62.6422             -62.6422             -62.6422
 A(SD)          39.6705               2.8831             -42.5536
 A(ORB+DIA)      0.0109              -0.0006               0.0328    A(PC) =   0.0144
 A(ORB)          0.0056               0.0006               0.0312    A(PC) =   0.0125
 A(DIA)          0.0054              -0.0012               0.0016    A(PC) =   0.0019
             ----------           ----------           ----------
 A(Tot)        -22.9608             -59.7596            -105.1629    A(iso)=  -62.6278
 Orientation: 
  X          -0.4108832           -0.3864280            0.8257411
  Y          -0.6663777            0.7454147            0.0172520
  Z          -0.6221862           -0.5431669           -0.5637854

Notes:  (1) The A matrix conforms to the "SAI" spin Hamiltonian convention.
        (2) Tensor is right-handed.

 -----------------------------------------------------------
 Nucleus   3H : A:ISTP=    1 I=  0.5 P=533.5514 MHz/au**3
                Q:ISTP=    2 I=  1.0 Q=  0.0029 barn     
 -----------------------------------------------------------
 Solving for nuclear perturbation:
Forming RHS of the CP-SCF equations         ... 
Calc. nucleus orbit integrals (SHARK)       ... done

------------------------------------------------------------------------------
                           ORCA CP-SCF CALCULATION
------------------------------------------------------------------------------

Input orbitals are from        ... /home/rwth0701/scratch/cs681498/orcajob__30556189-23co/4299.gbw
Input Perturbation             ... /home/rwth0701/scratch/cs681498/orcajob__30556189-23co/4299.pin.tmp
Wavefunction output            ... /home/rwth0701/scratch/cs681498/orcajob__30556189-23co/4299.pout.tmp
Perturbation mode              ... Imaginary perturbation
Solver                         ... POPLE
Max. number of iterations      ... 64
Convergence tolerance          ... 1.000e-03
Integral handling              ... Direct
DFT GridXC                     ... 1
COSX GridX                     ... 1
COSX IntAccX                   ... 3.067
COSX Algorithm                 ... Auto
Number of perturbations        ... 3
Number of operators            ... 2
Orbital ranges used for CP-SCF:
 Operator 0:  Orbitals   0...  4  to   5... 72
 Operator 1:  Orbitals   0...  3  to   4... 72
Variables per perturbation     ... 616
DFT calculation                         ... on
XC functional terms                     ... off
Hybrid DFT                              ... on
   Exchange mixing (SCF)                ...  0.200
   Exchange mixing (CP-SCF)             ...  0.200
   GGA exch. scaling(SCF)               ...  0.720
   GGA exch. scaling (CP-SCF)           ...  0.720
   GGA corr. scaling (SCF)              ...  0.810
   GGA corr. scaling (CP-SCF)           ...  0.810

CP-SCF GRID
-----------

General Integration Accuracy     IntAcc      ... 3.467
Radial Grid Type                 RadialGrid  ... OptM3 with GC (2021)
Angular Grid (max. ang.)         AngularGrid ... 1 (Lebedev-50)
Angular grid pruning method      GridPruning ... 4 (adaptive)
Weight generation scheme         WeightScheme... Becke
Basis function cutoff            BFCut       ... 1.0000e-10
Integration weight cutoff        WCut        ... 1.0000e-14
Angular grids for H and He will be reduced by one unit
Partially contracted basis set               ... off
Rotationally invariant grid construction     ... off

Total number of grid points                  ...     2338
Total number of batches                      ...       38
Average number of points per batch           ...       61
Average number of grid points per atom       ...      584

CP-SCF GRIDX
------------

General Integration Accuracy     IntAcc      ... 3.067
Radial Grid Type                 RadialGrid  ... OptM3 with GC (2021)
Angular Grid (max. ang.)         AngularGrid ... 1 (Lebedev-50)
Angular grid pruning method      GridPruning ... 4 (adaptive)
Weight generation scheme         WeightScheme... Becke
Basis function cutoff            BFCut       ... 1.0000e-10
Integration weight cutoff        WCut        ... 1.0000e-14
Angular grids for H and He will be reduced by one unit
Partially contracted basis set               ... on
Rotationally invariant grid construction     ... off

Total number of grid points                  ...     1077
Total number of batches                      ...       20
Average number of points per batch           ...       53
Average number of grid points per atom       ...      269

Memory available               ... 967.7 MB
Memory needed per perturbation ...   0.4 MB
Perturbations treated per batch... 3
Number of batches              ... 1
     CP-SCF ITERATION   0:   6.0875e-02 (   0.1 sec   0/  3 done)
     CP-SCF ITERATION   1:   2.5085e-03 (   0.1 sec   0/  3 done)
     CP-SCF ITERATION   2:   1.8047e-04 (   0.1 sec   3/  3 done)
                    *** THE CP-SCF HAS CONVERGED ***

Forming final perturbed densities           ... done
Transforming perturbed density to AO basis  ... done

 Raw HFC matrix (all values in MHz): 
 -----------------------------------
               -38.3393              17.2976              -1.2977
                17.2971             -72.9840             -19.8017
                -1.2985             -19.8022             -91.4627

 A(FC)         -67.6088             -67.6088             -67.6088
 A(SD)          37.8040              -0.2184             -37.5856
 A(ORB+DIA)      0.0121              -0.0006               0.0291    A(PC) =   0.0135
 A(ORB)          0.0075               0.0005               0.0278    A(PC) =   0.0119
 A(DIA)          0.0046              -0.0011               0.0013    A(PC) =   0.0016
             ----------           ----------           ----------
 A(Tot)        -29.7926             -67.8279            -105.1654    A(iso)=  -67.5953
 Orientation: 
  X           0.8901353           -0.4362306           -0.1317650
  Y           0.4280943            0.7013939            0.5698964
  Z          -0.1561870           -0.5636927            0.8110833

Notes:  (1) The A matrix conforms to the "SAI" spin Hamiltonian convention.
        (2) Tensor is right-handed.

 -----------------------------------------------------------
 Nucleus   0C : A:ISTP=   13 I=  0.5 P=134.1903 MHz/au**3
                Q:ISTP=   13 I=  0.5 Q=  0.0000 barn     
 -----------------------------------------------------------
 Solving for nuclear perturbation:
Forming RHS of the CP-SCF equations         ... 
Calc. nucleus orbit integrals (SHARK)       ... done

------------------------------------------------------------------------------
                           ORCA CP-SCF CALCULATION
------------------------------------------------------------------------------

Input orbitals are from        ... /home/rwth0701/scratch/cs681498/orcajob__30556189-23co/4299.gbw
Input Perturbation             ... /home/rwth0701/scratch/cs681498/orcajob__30556189-23co/4299.pin.tmp
Wavefunction output            ... /home/rwth0701/scratch/cs681498/orcajob__30556189-23co/4299.pout.tmp
Perturbation mode              ... Imaginary perturbation
Solver                         ... POPLE
Max. number of iterations      ... 64
Convergence tolerance          ... 1.000e-03
Integral handling              ... Direct
DFT GridXC                     ... 1
COSX GridX                     ... 1
COSX IntAccX                   ... 3.067
COSX Algorithm                 ... Auto
Number of perturbations        ... 3
Number of operators            ... 2
Orbital ranges used for CP-SCF:
 Operator 0:  Orbitals   0...  4  to   5... 72
 Operator 1:  Orbitals   0...  3  to   4... 72
Variables per perturbation     ... 616
DFT calculation                         ... on
XC functional terms                     ... off
Hybrid DFT                              ... on
   Exchange mixing (SCF)                ...  0.200
   Exchange mixing (CP-SCF)             ...  0.200
   GGA exch. scaling(SCF)               ...  0.720
   GGA exch. scaling (CP-SCF)           ...  0.720
   GGA corr. scaling (SCF)              ...  0.810
   GGA corr. scaling (CP-SCF)           ...  0.810

CP-SCF GRID
-----------

General Integration Accuracy     IntAcc      ... 3.467
Radial Grid Type                 RadialGrid  ... OptM3 with GC (2021)
Angular Grid (max. ang.)         AngularGrid ... 1 (Lebedev-50)
Angular grid pruning method      GridPruning ... 4 (adaptive)
Weight generation scheme         WeightScheme... Becke
Basis function cutoff            BFCut       ... 1.0000e-10
Integration weight cutoff        WCut        ... 1.0000e-14
Angular grids for H and He will be reduced by one unit
Partially contracted basis set               ... off
Rotationally invariant grid construction     ... off

Total number of grid points                  ...     2338
Total number of batches                      ...       38
Average number of points per batch           ...       61
Average number of grid points per atom       ...      584

CP-SCF GRIDX
------------

General Integration Accuracy     IntAcc      ... 3.067
Radial Grid Type                 RadialGrid  ... OptM3 with GC (2021)
Angular Grid (max. ang.)         AngularGrid ... 1 (Lebedev-50)
Angular grid pruning method      GridPruning ... 4 (adaptive)
Weight generation scheme         WeightScheme... Becke
Basis function cutoff            BFCut       ... 1.0000e-10
Integration weight cutoff        WCut        ... 1.0000e-14
Angular grids for H and He will be reduced by one unit
Partially contracted basis set               ... on
Rotationally invariant grid construction     ... off

Total number of grid points                  ...     1077
Total number of batches                      ...       20
Average number of points per batch           ...       53
Average number of grid points per atom       ...      269

Memory available               ... 967.6 MB
Memory needed per perturbation ...   0.4 MB
Perturbations treated per batch... 3
Number of batches              ... 1
     CP-SCF ITERATION   0:   1.0682e+00 (   0.1 sec   0/  3 done)
     CP-SCF ITERATION   1:   4.1829e-02 (   0.1 sec   0/  3 done)
     CP-SCF ITERATION   2:   3.0006e-03 (   0.1 sec   0/  3 done)
     CP-SCF ITERATION   3:   1.6255e-04 (   0.1 sec   3/  3 done)
                    *** THE CP-SCF HAS CONVERGED ***

Forming final perturbed densities           ... done
Transforming perturbed density to AO basis  ... done

 Raw HFC matrix (all values in MHz): 
 -----------------------------------
                47.3431             -69.8795              55.1308
               -69.8795             132.2535             -98.5265
                55.1308             -98.5265              86.8038

 A(FC)          88.9180              88.9180              88.9180
 A(SD)         -80.7830             -80.0895             160.8725
 A(ORB+DIA)     -0.1732              -0.1676              -0.0128    A(PC) =  -0.1179
 A(ORB)         -0.1736              -0.1680              -0.0127    A(PC) =  -0.1181
 A(DIA)          0.0004               0.0004              -0.0001    A(PC) =   0.0002
             ----------           ----------           ----------
 A(Tot)          7.9619               8.6608             249.7777    A(iso)=   88.8001
 Orientation: 
  X           0.7374057           -0.5424268            0.4024998
  Y           0.6224650            0.3143725           -0.7167337
  Z           0.2622407            0.7790656            0.5694617

Notes:  (1) The A matrix conforms to the "SAI" spin Hamiltonian convention.
        (2) Tensor is right-handed.


--------------------------------------------------------------------------------
----------------------------------------------------------------------------
                           ORCA EULER ANGLE PROGRAM
----------------------------------------------------------------------------

Only g-tensor available        -->  using g-tensor as reference tensor

Reference tensor               ...  g

g-tensor ordering              ...  |g_min> --> |gx>
                                    |g_mid> --> |gy>
                                    |g_max> --> |gz>

A- and EFG-tensor ordering     ...  the axes |Ax>, |Qx>, |Ay>, etc. are assigned
                                    such that the Euler rotation is minimal. You
                                    can find the respective eigenvalues as Ax,
                                    EFGx, Ay, etc. in the tables below.
                                    The relation of |Ax>, |Ay>,  etc. to Amin, Amid, etc.
                                    (as printed in the ORCA EPR/NMR CALCULATION Output)
                                    is obtained in the detailed printout.

Euler rotation around          ...  z - y - z
   First rotation              -->  by alpha around z
   Second rotation             -->  by beta around y'
   Third rotation              -->  by gamma around z''
   Positive / Negative angle   -->  clockwise / counterclockwise rotation

Plot EFG-tensors                    (-)
Plot HFC-tensors                    (-)
Detailed Printout                   (-)

-------------------------------------------------------------------------
          Euler rotation of hyperfine tensor to g-tensor
-------------------------------------------------------------------------

-------------------------------------------------------------------
 Atom  |   Alpha    Beta    Gamma   |   Ax       Ay       Az 
       |          [degrees]         |           [MHz]         
-------------------------------------------------------------------
  1H      -92.8     40.2     93.0     -66.73  -102.06   -28.56
  2H      -92.5     17.5     89.5     -59.76   -22.96  -105.16
  3H       83.0     16.4    -83.3     -67.83  -105.17   -29.79
  0C       90.1     44.3    -90.7     249.78     8.66     7.96
-------------------------------------------------------------------


Maximum memory used throughout the entire EPRNMR-calculation: 67.6 MB

Timings for individual modules:

Sum of individual times         ...       18.603 sec (=   0.310 min)
GTO integral calculation        ...        2.897 sec (=   0.048 min)  15.6 %
Spin-Orbit-Coupling Matrices    ...        2.192 sec (=   0.037 min)  11.8 %
SCF iterations                  ...        7.111 sec (=   0.119 min)  38.2 %
EPR/NMR calculation             ...        6.403 sec (=   0.107 min)  34.4 %
                             ****ORCA TERMINATED NORMALLY****
TOTAL RUN TIME: 0 days 0 hours 0 minutes 21 seconds 171 msec
