Job execution start: Mon Oct 24 17:43:06 CEST 2022
Shared library path: /home/cs681498/orca:/opt/MPI/openmpi-4.1.1/linux/gcc_4.8.5/lib:/opt/MPI/openmpi-4.1.1/linux/gcc_4.8.5/lib/lib32
Slurm Job ID is: 30556344
Slurm Job name is: 9546
ncm0502

                                 *****************
                                 * O   R   C   A *
                                 *****************

                                            #,                                       
                                            ###                                      
                                            ####                                     
                                            #####                                    
                                            ######                                   
                                           ########,                                 
                                     ,,################,,,,,                         
                               ,,#################################,,                 
                          ,,##########################################,,             
                       ,#########################################, ''#####,          
                    ,#############################################,,   '####,        
                  ,##################################################,,,,####,       
                ,###########''''           ''''###############################       
              ,#####''   ,,,,##########,,,,          '''####'''          '####       
            ,##' ,,,,###########################,,,                        '##       
           ' ,,###''''                  '''############,,,                           
         ,,##''                                '''############,,,,        ,,,,,,###''
      ,#''                                            '''#######################'''  
     '                                                          ''''####''''         
             ,#######,   #######,   ,#######,      ##                                
            ,#'     '#,  ##    ##  ,#'     '#,    #''#        ######   ,####,        
            ##       ##  ##   ,#'  ##            #'  '#       #        #'  '#        
            ##       ##  #######   ##           ,######,      #####,   #    #        
            '#,     ,#'  ##    ##  '#,     ,#' ,#      #,         ##   #,  ,#        
             '#######'   ##     ##  '#######'  #'      '#     #####' # '####'        



                  #######################################################
                  #                        -***-                        #
                  #          Department of theory and spectroscopy      #
                  #    Directorship and core code : Frank Neese         #
                  #        Max Planck Institute fuer Kohlenforschung    #
                  #                Kaiser Wilhelm Platz 1               #
                  #                 D-45470 Muelheim/Ruhr               #
                  #                      Germany                        #
                  #                                                     #
                  #                  All rights reserved                #
                  #                        -***-                        #
                  #######################################################


                         Program Version 5.0.3 -  RELEASE  -


 With contributions from (in alphabetic order):
   Daniel Aravena         : Magnetic Suceptibility
   Michael Atanasov       : Ab Initio Ligand Field Theory (pilot matlab implementation)
   Alexander A. Auer      : GIAO ZORA, VPT2 properties, NMR spectrum
   Ute Becker             : Parallelization
   Giovanni Bistoni       : ED, misc. LED, open-shell LED, HFLD
   Martin Brehm           : Molecular dynamics
   Dmytro Bykov           : SCF Hessian
   Vijay G. Chilkuri      : MRCI spin determinant printing, contributions to CSF-ICE
   Dipayan Datta          : RHF DLPNO-CCSD density
   Achintya Kumar Dutta   : EOM-CC, STEOM-CC
   Dmitry Ganyushin       : Spin-Orbit,Spin-Spin,Magnetic field MRCI
   Miquel Garcia          : C-PCM and meta-GGA Hessian, CC/C-PCM, Gaussian charge scheme
   Yang Guo               : DLPNO-NEVPT2, F12-NEVPT2, CIM, IAO-localization
   Andreas Hansen         : Spin unrestricted coupled pair/coupled cluster methods
   Benjamin Helmich-Paris : MC-RPA, TRAH-SCF, COSX integrals
   Lee Huntington         : MR-EOM, pCC
   Robert Izsak           : Overlap fitted RIJCOSX, COSX-SCS-MP3, EOM
   Marcus Kettner         : VPT2
   Christian Kollmar      : KDIIS, OOCD, Brueckner-CCSD(T), CCSD density, CASPT2, CASPT2-K
   Simone Kossmann        : Meta GGA functionals, TD-DFT gradient, OOMP2, MP2 Hessian
   Martin Krupicka        : Initial AUTO-CI
   Lucas Lang             : DCDCAS
   Marvin Lechner         : AUTO-CI (C++ implementation), FIC-MRCC
   Dagmar Lenk            : GEPOL surface, SMD
   Dimitrios Liakos       : Extrapolation schemes; Compound Job, initial MDCI parallelization
   Dimitrios Manganas     : Further ROCIS development; embedding schemes
   Dimitrios Pantazis     : SARC Basis sets
   Anastasios Papadopoulos: AUTO-CI, single reference methods and gradients
   Taras Petrenko         : DFT Hessian,TD-DFT gradient, ASA, ECA, R-Raman, ABS, FL, XAS/XES, NRVS
   Peter Pinski           : DLPNO-MP2, DLPNO-MP2 Gradient
   Christoph Reimann      : Effective Core Potentials
   Marius Retegan         : Local ZFS, SOC
   Christoph Riplinger    : Optimizer, TS searches, QM/MM, DLPNO-CCSD(T), (RO)-DLPNO pert. Triples
   Tobias Risthaus        : Range-separated hybrids, TD-DFT gradient, RPA, STAB
   Michael Roemelt        : Original ROCIS implementation
   Masaaki Saitow         : Open-shell DLPNO-CCSD energy and density
   Barbara Sandhoefer     : DKH picture change effects
   Avijit Sen             : IP-ROCIS
   Kantharuban Sivalingam : CASSCF convergence, NEVPT2, FIC-MRCI
   Bernardo de Souza      : ESD, SOC TD-DFT
   Georgi Stoychev        : AutoAux, RI-MP2 NMR, DLPNO-MP2 response
   Willem Van den Heuvel  : Paramagnetic NMR
   Boris Wezisla          : Elementary symmetry handling
   Frank Wennmohs         : Technical directorship


 We gratefully acknowledge several colleagues who have allowed us to
 interface, adapt or use parts of their codes:
   Stefan Grimme, W. Hujo, H. Kruse, P. Pracht,  : VdW corrections, initial TS optimization,
                  C. Bannwarth, S. Ehlert          DFT functionals, gCP, sTDA/sTD-DF
   Ed Valeev, F. Pavosevic, A. Kumar             : LibInt (2-el integral package), F12 methods
   Garnet Chan, S. Sharma, J. Yang, R. Olivares  : DMRG
   Ulf Ekstrom                                   : XCFun DFT Library
   Mihaly Kallay                                 : mrcc  (arbitrary order and MRCC methods)
   Jiri Pittner, Ondrej Demel                    : Mk-CCSD
   Frank Weinhold                                : gennbo (NPA and NBO analysis)
   Christopher J. Cramer and Donald G. Truhlar   : smd solvation model
   Lars Goerigk                                  : TD-DFT with DH, B97 family of functionals
   V. Asgeirsson, H. Jonsson                     : NEB implementation
   FAccTs GmbH                                   : IRC, NEB, NEB-TS, DLPNO-Multilevel, CI-OPT
                                                   MM, QMMM, 2- and 3-layer-ONIOM, Crystal-QMMM,
                                                   LR-CPCM, SF, NACMEs, symmetry and pop. for TD-DFT,
                                                   nearIR, NL-DFT gradient (VV10), updates on ESD,
                                                   ML-optimized integration grids
   S Lehtola, MJT Oliveira, MAL Marques          : LibXC Library
   Liviu Ungur et al                             : ANISO software


 Your calculation uses the libint2 library for the computation of 2-el integrals
 For citations please refer to: http://libint.valeyev.net

 Your ORCA version has been built with support for libXC version: 5.1.0
 For citations please refer to: https://tddft.org/programs/libxc/

 This ORCA versions uses:
   CBLAS   interface :  Fast vector & matrix operations
   LAPACKE interface :  Fast linear algebra routines
   SCALAPACK package :  Parallel linear algebra routines
   Shared memory     :  Shared parallel matrices
   BLAS/LAPACK       :  OpenBLAS 0.3.15  USE64BITINT DYNAMIC_ARCH NO_AFFINITY SkylakeX SINGLE_THREADED
        Core in use  :  SkylakeX
   Copyright (c) 2011-2014, The OpenBLAS Project


================================================================================

----- Orbital basis set information -----
Your calculation utilizes the basis: EPR-III
   V. Barone, in Recent Advances in Density Functional Methods, Part 1 (ed. D. P. Chong), World Scientific, Singapore, 1995, p. 287.
   N. Rega, M. Cossi and V. Barone, J. Chem. Phys. 105, 11060 (1996).

----- AuxJ basis set information -----
Your calculation utilizes the AutoAux generation procedure.
  G. L. Stoychev, A. A. Auer, F. Neese, J. Chem. Theory Comput. 13, 554 (2017)

----- AuxC basis set information -----
Your calculation utilizes the AutoAux generation procedure.
  G. L. Stoychev, A. A. Auer, F. Neese, J. Chem. Theory Comput. 13, 554 (2017)

----- AuxJK basis set information -----
Your calculation utilizes the AutoAux generation procedure.
  G. L. Stoychev, A. A. Auer, F. Neese, J. Chem. Theory Comput. 13, 554 (2017)

================================================================================
                                        WARNINGS
                       Please study these warnings very carefully!
================================================================================


WARNING: your system is open-shell and RHF/RKS was chosen
  ===> : WILL SWITCH to UHF/UKS


INFO   : the flag for use of the SHARK integral package has been found!

================================================================================
                                       INPUT FILE
================================================================================
NAME = /home/rwth0701/scratch/cs681498/orcajob__30556344-gZPP/9546.inp
|  1> !B3LYP EPR-III Autoaux
|  2> !PAL4
|  3> 
|  4> * xyz 0 2
|  5>  C    -34.1510812309    -53.4655918039    -19.1580521423
|  6>  H    -34.0047081995    -54.5144492917    -19.1421165278
|  7>  H    -33.2109099346    -52.9381981846    -19.3096957865
|  8>  H    -35.1157635641    -52.9874085623    -19.1177889734
|  9> *
| 10> 
| 11> %EPRNMR
| 12>         GTENSOR   TRUE
| 13>         NUCLEI    = ALL H {AISO, ADIP, AORB}
| 14>         NUCLEI    = ALL C {AISO, ADIP, AORB}
| 15> END
| 16> 
| 17> 
| 18>                          ****END OF INPUT****
================================================================================

                       ****************************
                       * Single Point Calculation *
                       ****************************

---------------------------------
CARTESIAN COORDINATES (ANGSTROEM)
---------------------------------
  C    -34.151081  -53.465592  -19.158052
  H    -34.004708  -54.514449  -19.142117
  H    -33.210910  -52.938198  -19.309696
  H    -35.115764  -52.987409  -19.117789

----------------------------
CARTESIAN COORDINATES (A.U.)
----------------------------
  NO LB      ZA    FRAG     MASS         X           Y           Z
   0 C     6.0000    0    12.011  -64.536191  -101.035326  -36.203472
   1 H     1.0000    0     1.008  -64.259586  -103.017380  -36.173358
   2 H     1.0000    0     1.008  -62.759524  -100.038697  -36.490037
   3 H     1.0000    0     1.008  -66.359176  -100.131691  -36.127385

--------------------------------
INTERNAL COORDINATES (ANGSTROEM)
--------------------------------
 C      0   0   0     0.000000000000     0.00000000     0.00000000
 H      1   0   0     1.059141651454     0.00000000     0.00000000
 H      1   2   0     1.088605479910   111.25400242     0.00000000
 H      1   2   3     1.077447139912   124.24102996   174.92071246

---------------------------
INTERNAL COORDINATES (A.U.)
---------------------------
 C      0   0   0     0.000000000000     0.00000000     0.00000000
 H      1   0   0     2.001487658277     0.00000000     0.00000000
 H      1   2   0     2.057166224917   111.25400242     0.00000000
 H      1   2   3     2.036080018211   124.24102996   174.92071246

---------------------
BASIS SET INFORMATION
---------------------
There are 2 groups of distinct atoms

 Group   1 Type C   : 12s8p2d1f contracted to 8s5p2d1f pattern {51111111/41111/11/1}
 Group   2 Type H   : 7s2p contracted to 5s2p pattern {31111/11}

Atom   0C    basis set group =>   1
Atom   1H    basis set group =>   2
Atom   2H    basis set group =>   2
Atom   3H    basis set group =>   2
---------------------------------
AUXILIARY/J BASIS SET INFORMATION
---------------------------------
There are 2 groups of distinct atoms

 Group   1 Type C   : 20s17p16d8f3g contracted to 20s17p16d8f3g pattern {11111111111111111111/11111111111111111/1111111111111111/11111111/111}
 Group   2 Type H   : 17s7p3d contracted to 17s7p3d pattern {11111111111111111/1111111/111}

Atom   0C    basis set group =>   1
Atom   1H    basis set group =>   2
Atom   2H    basis set group =>   2
Atom   3H    basis set group =>   2
---------------------------------
AUXILIARY/C BASIS SET INFORMATION
---------------------------------
There are 2 groups of distinct atoms

 Group   1 Type C   : 20s17p16d8f3g contracted to 20s17p16d8f3g pattern {11111111111111111111/11111111111111111/1111111111111111/11111111/111}
 Group   2 Type H   : 17s7p3d contracted to 17s7p3d pattern {11111111111111111/1111111/111}

Atom   0C    basis set group =>   1
Atom   1H    basis set group =>   2
Atom   2H    basis set group =>   2
Atom   3H    basis set group =>   2
----------------------------------
AUXILIARY/JK BASIS SET INFORMATION
----------------------------------
There are 2 groups of distinct atoms

 Group   1 Type C   : 20s17p16d8f3g contracted to 20s17p16d8f3g pattern {11111111111111111111/11111111111111111/1111111111111111/11111111/111}
 Group   2 Type H   : 17s7p3d contracted to 17s7p3d pattern {11111111111111111/1111111/111}

Atom   0C    basis set group =>   1
Atom   1H    basis set group =>   2
Atom   2H    basis set group =>   2
Atom   3H    basis set group =>   2


           ************************************************************
           *        Program running with 4 parallel MPI-processes     *
           *              working on a common directory               *
           ************************************************************
------------------------------------------------------------------------------
                           ORCA GTO INTEGRAL CALCULATION
                           -- RI-GTO INTEGRALS CHOSEN --
------------------------------------------------------------------------------
------------------------------------------------------------------------------
                   ___                                                        
                  /   \      - P O W E R E D   B Y -                         
                 /     \                                                     
                 |  |  |   _    _      __       _____    __    __             
                 |  |  |  | |  | |    /  \     |  _  \  |  |  /  |          
                  \  \/   | |  | |   /    \    | | | |  |  | /  /          
                 / \  \   | |__| |  /  /\  \   | |_| |  |  |/  /          
                |  |  |   |  __  | /  /__\  \  |    /   |      \           
                |  |  |   | |  | | |   __   |  |    \   |  |\   \          
                \     /   | |  | | |  |  |  |  | |\  \  |  | \   \       
                 \___/    |_|  |_| |__|  |__|  |_| \__\ |__|  \__/        
                                                                              
                      - O R C A' S   B I G   F R I E N D -                    
                                      &                                       
                       - I N T E G R A L  F E E D E R -                       
                                                                              
 v1 FN, 2020, v2 2021                                                         
------------------------------------------------------------------------------


Reading SHARK input file /home/rwth0701/scratch/cs681498/orcajob__30556344-gZPP/9546.SHARKINP.tmp ... ok
----------------------
SHARK INTEGRAL PACKAGE
----------------------

Number of atoms                             ...      4
Number of basis functions                   ...     73
Number of shells                            ...     37
Maximum angular momentum                    ...      3
Integral batch strategy                     ... SHARK/LIBINT Hybrid
RI-J (if used) integral strategy            ... SPLIT-RIJ (Revised 2003 algorithm where possible)
Printlevel                                  ...      1
Contraction scheme used                     ... SEGMENTED contraction
Coulomb Range Separation                    ... NOT USED
Exchange Range Separation                   ... NOT USED
Finite Nucleus Model                        ... NOT USED
Auxiliary Coulomb fitting basis             ... AVAILABLE
   # of basis functions in Aux-J            ...    393
   # of shells in Aux-J                     ...    145
   Maximum angular momentum in Aux-J        ...      4
Auxiliary J/K fitting basis                 ... AVAILABLE
   # of basis functions in Aux-JK           ...    393
   # of shells in Aux-JK                    ...    145
   Maximum angular momentum in Aux-JK       ...      4
Auxiliary Correlation fitting basis         ... AVAILABLE
   # of basis functions in Aux-C            ...    393
   # of shells in Aux-C                     ...    145
   Maximum angular momentum in Aux-C        ...      4
Auxiliary 'external' fitting basis          ... NOT available
Integral threshold                          ...     1.000000e-10
Primitive cut-off                           ...     1.000000e-11
Primitive pair pre-selection threshold      ...     1.000000e-11

Calculating pre-screening integrals         ... done (  0.0 sec) Dimension = 37
Organizing shell pair data                  ... done (  0.0 sec)
Shell pair information
Total number of shell pairs                 ...       703
Shell pairs after pre-screening             ...       688
Total number of primitive shell pairs       ...      1300
Primitive shell pairs kept                  ...      1183
          la=0 lb=0:    261 shell pairs
          la=1 lb=0:    253 shell pairs
          la=1 lb=1:     66 shell pairs
          la=2 lb=0:     46 shell pairs
          la=2 lb=1:     22 shell pairs
          la=2 lb=2:      3 shell pairs
          la=3 lb=0:     23 shell pairs
          la=3 lb=1:     11 shell pairs
          la=3 lb=2:      2 shell pairs
          la=3 lb=3:      1 shell pairs

Calculating one electron integrals          ... done (  0.0 sec)
Calculating RI/J V-Matrix + Cholesky decomp.... done (  0.2 sec)
Calculating RI/JK V-Matrix + Cholesky decomp... done (  0.1 sec)
Calculating RI/C V-Matrix + Cholesky decomp.... done (  0.1 sec)
Calculating Nuclear repulsion               ... done (  0.0 sec) ENN=      9.716249814479 Eh

SHARK setup successfully completed in   0.8 seconds

Maximum memory used throughout the entire GTOINT-calculation: 13.7 MB


           ************************************************************
           *        Program running with 4 parallel MPI-processes     *
           *              working on a common directory               *
           ************************************************************
-------------------------------------------------------------------------------
                                 ORCA SCF
-------------------------------------------------------------------------------

------------
SCF SETTINGS
------------
Hamiltonian:
 Density Functional     Method          .... DFT(GTOs)
 Exchange Functional    Exchange        .... B88
   X-Alpha parameter    XAlpha          ....  0.666667
   Becke's b parameter  XBeta           ....  0.004200
 Correlation Functional Correlation     .... LYP
 LDA part of GGA corr.  LDAOpt          .... VWN-5
 Gradients option       PostSCFGGA      .... off
 Hybrid DFT is turned on
   Fraction HF Exchange ScalHFX         ....  0.200000
   Scaling of DF-GGA-X  ScalDFX         ....  0.720000
   Scaling of DF-GGA-C  ScalDFC         ....  0.810000
   Scaling of DF-LDA-C  ScalLDAC        ....  1.000000
   Perturbative correction              ....  0.000000
   Density functional embedding theory  .... OFF
   NL short-range parameter             ....  4.800000
 RI-approximation to the Coulomb term is turned on
   Number of AuxJ basis functions       .... 393
   RIJ-COSX (HFX calculated with COS-X)).... on


General Settings:
 Integral files         IntName         .... /home/rwth0701/scratch/cs681498/orcajob__30556344-gZPP/9546
 Hartree-Fock type      HFTyp           .... UHF
 Total Charge           Charge          ....    0
 Multiplicity           Mult            ....    2
 Number of Electrons    NEL             ....    9
 Basis Dimension        Dim             ....   73
 Nuclear Repulsion      ENuc            ....      9.7162498145 Eh

Convergence Acceleration:
 DIIS                   CNVDIIS         .... on
   Start iteration      DIISMaxIt       ....    12
   Startup error        DIISStart       ....  0.200000
   # of expansion vecs  DIISMaxEq       ....     5
   Bias factor          DIISBfac        ....   1.050
   Max. coefficient     DIISMaxC        ....  10.000
 Trust-Rad. Augm. Hess. CNVTRAH         .... auto
   Auto Start mean grad. ratio tolernc. ....  1.125000
   Auto Start start iteration           ....    20
   Auto Start num. interpolation iter.  ....    10
   Max. Number of Micro iterations      ....    16
   Max. Number of Macro iterations      .... Maxiter - #DIIS iter
   Number of Davidson start vectors     ....     2
   Converg. threshold I  (grad. norm)   ....   5.000e-05
   Converg. threshold II (energy diff.) ....   1.000e-06
   Grad. Scal. Fac. for Micro threshold ....   0.100
   Minimum threshold for Micro iter.    ....   0.010
   NR start threshold (gradient norm)   ....   0.001
   Initial trust radius                 ....   0.400
   Minimum AH scaling param. (alpha)    ....   1.000
   Maximum AH scaling param. (alpha)    .... 1000.000
   Orbital update algorithm             .... Taylor
   White noise on init. David. guess    .... on
   Maximum white noise                  ....   0.010
   Quad. conv. algorithm                .... NR
 SOSCF                  CNVSOSCF        .... off
 Level Shifting         CNVShift        .... on
   Level shift para.    LevelShift      ....    0.2500
   Turn off err/grad.   ShiftErr        ....    0.0010
 Zerner damping         CNVZerner       .... off
 Static damping         CNVDamp         .... on
   Fraction old density DampFac         ....    0.7000
   Max. Damping (<1)    DampMax         ....    0.9800
   Min. Damping (>=0)   DampMin         ....    0.0000
   Turn off err/grad.   DampErr         ....    0.1000
 Fernandez-Rico         CNVRico         .... off

SCF Procedure:
 Maximum # iterations   MaxIter         ....   125
 SCF integral mode      SCFMode         .... Direct
   Integral package                     .... SHARK and LIBINT hybrid scheme
 Reset frequency        DirectResetFreq ....    20
 Integral Threshold     Thresh          ....  1.000e-10 Eh
 Primitive CutOff       TCut            ....  1.000e-11 Eh

Convergence Tolerance:
 Convergence Check Mode ConvCheckMode   .... Total+1el-Energy
 Convergence forced     ConvForced      .... 0
 Energy Change          TolE            ....  1.000e-06 Eh
 1-El. energy change                    ....  1.000e-03 Eh
 DIIS Error             TolErr          ....  1.000e-06


Diagonalization of the overlap matrix:
Smallest eigenvalue                        ... 1.551e-03
Time for diagonalization                   ...    0.001 sec
Threshold for overlap eigenvalues          ... 1.000e-08
Number of eigenvalues below threshold      ... 0
Time for construction of square roots      ...    0.008 sec
Total time needed                          ...    0.010 sec

Time for model grid setup =    0.105 sec

------------------------------
INITIAL GUESS: MODEL POTENTIAL
------------------------------
Loading Hartree-Fock densities                     ... done
Calculating cut-offs                               ... done
Initializing the effective Hamiltonian             ... done
Setting up the integral package (SHARK)            ... done
Starting the Coulomb interaction                   ... done (   0.1 sec)
Reading the grid                                   ... done
Mapping shells                                     ... done
Starting the XC term evaluation                    ... done (   0.0 sec)
  promolecular density results
     # of electrons  =      8.998579039
     EX              =     -5.973086905
     EC              =     -0.260539708
     EX+EC           =     -6.233626613
Transforming the Hamiltonian                       ... done (   0.0 sec)
Diagonalizing the Hamiltonian                      ... done (   0.0 sec)
Back transforming the eigenvectors                 ... done (   0.0 sec)
Now organizing SCF variables                       ... done
                      ------------------
                      INITIAL GUESS DONE (   0.2 sec)
                      ------------------
-------------------
DFT GRID GENERATION
-------------------

General Integration Accuracy     IntAcc      ... 4.388
Radial Grid Type                 RadialGrid  ... OptM3 with GC (2021)
Angular Grid (max. ang.)         AngularGrid ... 4 (Lebedev-302)
Angular grid pruning method      GridPruning ... 4 (adaptive)
Weight generation scheme         WeightScheme... Becke
Basis function cutoff            BFCut       ... 1.0000e-10
Integration weight cutoff        WCut        ... 1.0000e-14
Angular grids for H and He will be reduced by one unit
Partially contracted basis set               ... off
Rotationally invariant grid construction     ... off

Total number of grid points                  ...    17037
Total number of batches                      ...      269
Average number of points per batch           ...       63
Average number of grid points per atom       ...     4259
Time for grid setup =    0.178 sec

--------------------
COSX GRID GENERATION
--------------------

GRIDX 1
-------
General Integration Accuracy     IntAcc      ... 3.816
Radial Grid Type                 RadialGrid  ... OptM3 with GC (2021)
Angular Grid (max. ang.)         AngularGrid ... 1 (Lebedev-50)
Angular grid pruning method      GridPruning ... 4 (adaptive)
Weight generation scheme         WeightScheme... Becke
Basis function cutoff            BFCut       ... 1.0000e-10
Integration weight cutoff        WCut        ... 1.0000e-14
Angular grids for H and He will be reduced by one unit
Partially contracted basis set               ... on
Rotationally invariant grid construction     ... off

Total number of grid points                  ...     2146
Total number of batches                      ...       35
Average number of points per batch           ...       61
Average number of grid points per atom       ...      536
UseSFitting                                  ... on

GRIDX 2
-------
General Integration Accuracy     IntAcc      ... 4.020
Radial Grid Type                 RadialGrid  ... OptM3 with GC (2021)
Angular Grid (max. ang.)         AngularGrid ... 2 (Lebedev-110)
Angular grid pruning method      GridPruning ... 4 (adaptive)
Weight generation scheme         WeightScheme... Becke
Basis function cutoff            BFCut       ... 1.0000e-10
Integration weight cutoff        WCut        ... 1.0000e-14
Angular grids for H and He will be reduced by one unit
Partially contracted basis set               ... on
Rotationally invariant grid construction     ... off

Total number of grid points                  ...     5048
Total number of batches                      ...       82
Average number of points per batch           ...       61
Average number of grid points per atom       ...     1262
UseSFitting                                  ... on

GRIDX 3
-------
General Integration Accuracy     IntAcc      ... 4.338
Radial Grid Type                 RadialGrid  ... OptM3 with GC (2021)
Angular Grid (max. ang.)         AngularGrid ... 3 (Lebedev-194)
Angular grid pruning method      GridPruning ... 4 (adaptive)
Weight generation scheme         WeightScheme... Becke
Basis function cutoff            BFCut       ... 1.0000e-10
Integration weight cutoff        WCut        ... 1.0000e-14
Angular grids for H and He will be reduced by one unit
Partially contracted basis set               ... on
Rotationally invariant grid construction     ... off

Total number of grid points                  ...    11716
Total number of batches                      ...      186
Average number of points per batch           ...       62
Average number of grid points per atom       ...     2929
UseSFitting                                  ... on

Time for X-Grid setup             =    0.245 sec

--------------
SCF ITERATIONS
--------------
ITER       Energy         Delta-E        Max-DP      RMS-DP      [F,P]     Damp
               ***  Starting incremental Fock matrix formation  ***
  0    -39.7836418266   0.000000000000 0.01561244  0.00050587  0.0920179 0.7000
  1    -39.8029088934  -0.019267066784 0.00978783  0.00037703  0.0486788 0.7000
                               ***Turning on DIIS***
  2    -39.8114826682  -0.008573774785 0.01575808  0.00065806  0.0199817 0.0000
  3    -39.8232170833  -0.011734415058 0.00870946  0.00028341  0.0286476 0.0000
  4    -39.8267465723  -0.003529489029 0.00305333  0.00007926  0.0059055 0.0000
  5    -39.8268899661  -0.000143393837 0.00108476  0.00003255  0.0019437 0.0000
  6    -39.8269070905  -0.000017124397 0.00088714  0.00002467  0.0008155 0.0000
               *** Restarting incremental Fock matrix formation ***
                                   *** Resetting DIIS ***
                 **** Energy Check signals convergence ****

               *****************************************************
               *                     SUCCESS                       *
               *           SCF CONVERGED AFTER   7 CYCLES          *
               *****************************************************

Old exchange energy                            =     -1.242368518 Eh
New exchange energy                            =     -1.242367908 Eh
Exchange energy change after final integration =      0.000000610 Eh
Total energy after final integration           =    -39.826907256 Eh
Final COS-X integration done in                =     0.183 sec

----------------
TOTAL SCF ENERGY
----------------

Total Energy       :          -39.82690726 Eh           -1083.74524 eV

Components:
Nuclear Repulsion  :            9.71624981 Eh             264.39260 eV
Electronic Energy  :          -49.54315707 Eh           -1348.13784 eV
One Electron Energy:          -71.72968450 Eh           -1951.86395 eV
Two Electron Energy:           22.18652743 Eh             603.72610 eV
Max COSX asymmetry :            0.00000004 Eh               0.00000 eV

Virial components:
Potential Energy   :          -79.47106489 Eh           -2162.51762 eV
Kinetic Energy     :           39.64415764 Eh            1078.77237 eV
Virial Ratio       :            2.00460975


DFT components:
N(Alpha)           :        4.999999209564 electrons
N(Beta)            :        4.000000514281 electrons
N(Total)           :        8.999999723844 electrons
E(X)               :       -4.916785086290 Eh       
E(C)               :       -0.309927403414 Eh       
E(XC)              :       -5.226712489704 Eh       
DFET-embed. en.    :        0.000000000000 Eh       

---------------
SCF CONVERGENCE
---------------

  Last Energy change         ...   -7.7531e-07  Tolerance :   1.0000e-06
  Last MAX-Density change    ...    0.0000e+00  Tolerance :   1.0000e-05
  Last RMS-Density change    ...    0.0000e+00  Tolerance :   1.0000e-06
  Last DIIS Error            ...    8.8082e-05  Tolerance :   1.0000e-06

             **** THE GBW FILE WAS UPDATED (/home/rwth0701/scratch/cs681498/orcajob__30556344-gZPP/9546.gbw) ****
             **** DENSITY /home/rwth0701/scratch/cs681498/orcajob__30556344-gZPP/9546.scfp WAS UPDATED ****
             **** ENERGY FILE WAS UPDATED (/home/rwth0701/scratch/cs681498/orcajob__30556344-gZPP/9546.en.tmp) ****
----------------------
UHF SPIN CONTAMINATION
----------------------

Warning: in a DFT calculation there is little theoretical justification to 
         calculate <S**2> as in Hartree-Fock theory. We will do it anyways
         but you should keep in mind that the values have only limited relevance

Expectation value of <S**2>     :     0.753553
Ideal value S*(S+1) for S=0.5   :     0.750000
Deviation                       :     0.003553

             **** THE GBW FILE WAS UPDATED (/home/rwth0701/scratch/cs681498/orcajob__30556344-gZPP/9546.gbw) ****
             **** DENSITY /home/rwth0701/scratch/cs681498/orcajob__30556344-gZPP/9546.scfp WAS UPDATED ****
----------------
ORBITAL ENERGIES
----------------
                 SPIN UP ORBITALS
  NO   OCC          E(Eh)            E(eV) 
   0   1.0000     -10.182952      -277.0922 
   1   1.0000      -0.689429       -18.7603 
   2   1.0000      -0.436187       -11.8693 
   3   1.0000      -0.411191       -11.1891 
   4   1.0000      -0.234974        -6.3940 
   5   0.0000       0.001058         0.0288 
   6   0.0000       0.035346         0.9618 
   7   0.0000       0.038105         1.0369 
   8   0.0000       0.047406         1.2900 
   9   0.0000       0.088946         2.4204 
  10   0.0000       0.090800         2.4708 
  11   0.0000       0.099943         2.7196 
  12   0.0000       0.220891         6.0108 
  13   0.0000       0.224254         6.1023 
  14   0.0000       0.247004         6.7213 
  15   0.0000       0.276281         7.5180 
  16   0.0000       0.300740         8.1836 
  17   0.0000       0.317974         8.6525 
  18   0.0000       0.346828         9.4377 
  19   0.0000       0.550897        14.9907 
  20   0.0000       0.568071        15.4580 
  21   0.0000       0.736459        20.0401 
  22   0.0000       0.743975        20.2446 
  23   0.0000       0.766066        20.8457 
  24   0.0000       0.833222        22.6731 
  25   0.0000       0.878360        23.9014 
  26   0.0000       0.916441        24.9376 
  27   0.0000       0.938977        25.5509 
  28   0.0000       0.965634        26.2762 
  29   0.0000       1.061456        28.8837 
  30   0.0000       1.061963        28.8975 
  31   0.0000       1.118583        30.4382 
  32   0.0000       1.169995        31.8372 
  33   0.0000       1.171412        31.8758 
  34   0.0000       1.465314        39.8732 
  35   0.0000       1.473909        40.1071 
  36   0.0000       1.511688        41.1351 
  37   0.0000       1.713454        46.6255 
  38   0.0000       1.741160        47.3794 
  39   0.0000       1.754238        47.7352 
  40   0.0000       2.715146        73.8829 
  41   0.0000       2.728548        74.2476 
  42   0.0000       2.878409        78.3255 
  43   0.0000       2.892942        78.7210 
  44   0.0000       2.942054        80.0574 
  45   0.0000       2.962812        80.6222 
  46   0.0000       2.992253        81.4233 
  47   0.0000       3.157543        85.9211 
  48   0.0000       3.171323        86.2961 
  49   0.0000       3.245786        88.3223 
  50   0.0000       3.252989        88.5183 
  51   0.0000       3.713107       101.0388 
  52   0.0000       3.754594       102.1677 
  53   0.0000       3.802792       103.4792 
  54   0.0000       3.942335       107.2764 
  55   0.0000       3.982382       108.3661 
  56   0.0000       4.064101       110.5898 
  57   0.0000       4.148937       112.8983 
  58   0.0000       4.153707       113.0281 
  59   0.0000       4.179122       113.7197 
  60   0.0000       4.656655       126.7140 
  61   0.0000       5.010886       136.3531 
  62   0.0000       5.368311       146.0792 
  63   0.0000       5.464480       148.6961 
  64   0.0000       5.567848       151.5089 
  65   0.0000       6.086678       165.6269 
  66   0.0000       6.162235       167.6829 
  67   0.0000       7.767811       211.3729 
  68   0.0000      29.087382       791.5079 
  69   0.0000      37.154047      1011.0130 
  70   0.0000      37.219938      1012.8060 
  71   0.0000      37.220301      1012.8159 
  72   0.0000     133.548145      3634.0298 

                 SPIN DOWN ORBITALS
  NO   OCC          E(Eh)            E(eV) 
   0   1.0000     -10.168587      -276.7013 
   1   1.0000      -0.650172       -17.6921 
   2   1.0000      -0.426832       -11.6147 
   3   1.0000      -0.401489       -10.9251 
   4   0.0000      -0.077629        -2.1124 
   5   0.0000       0.004138         0.1126 
   6   0.0000       0.034962         0.9514 
   7   0.0000       0.037653         1.0246 
   8   0.0000       0.060637         1.6500 
   9   0.0000       0.090077         2.4511 
  10   0.0000       0.093712         2.5500 
  11   0.0000       0.102423         2.7871 
  12   0.0000       0.221865         6.0373 
  13   0.0000       0.225823         6.1450 
  14   0.0000       0.266682         7.2568 
  15   0.0000       0.305674         8.3178 
  16   0.0000       0.310601         8.4519 
  17   0.0000       0.323634         8.8065 
  18   0.0000       0.360192         9.8013 
  19   0.0000       0.577592        15.7171 
  20   0.0000       0.595730        16.2106 
  21   0.0000       0.737356        20.0645 
  22   0.0000       0.746485        20.3129 
  23   0.0000       0.791905        21.5488 
  24   0.0000       0.831754        22.6332 
  25   0.0000       0.883703        24.0468 
  26   0.0000       0.920843        25.0574 
  27   0.0000       0.956142        26.0179 
  28   0.0000       0.985098        26.8059 
  29   0.0000       1.082686        29.4614 
  30   0.0000       1.119522        30.4637 
  31   0.0000       1.142255        31.0823 
  32   0.0000       1.181666        32.1548 
  33   0.0000       1.185218        32.2514 
  34   0.0000       1.478287        40.2262 
  35   0.0000       1.488457        40.5030 
  36   0.0000       1.522789        41.4372 
  37   0.0000       1.718084        46.7514 
  38   0.0000       1.749378        47.6030 
  39   0.0000       1.761945        47.9450 
  40   0.0000       2.755702        74.9865 
  41   0.0000       2.769052        75.3497 
  42   0.0000       2.880628        78.3859 
  43   0.0000       2.936984        79.9194 
  44   0.0000       2.958555        80.5064 
  45   0.0000       2.992051        81.4178 
  46   0.0000       3.044606        82.8479 
  47   0.0000       3.207741        87.2871 
  48   0.0000       3.221683        87.6665 
  49   0.0000       3.303680        89.8977 
  50   0.0000       3.309753        90.0630 
  51   0.0000       3.753944       102.1500 
  52   0.0000       3.775774       102.7440 
  53   0.0000       3.801089       103.4329 
  54   0.0000       3.944135       107.3254 
  55   0.0000       3.997642       108.7814 
  56   0.0000       4.079703       111.0144 
  57   0.0000       4.153039       113.0099 
  58   0.0000       4.179471       113.7292 
  59   0.0000       4.181442       113.7828 
  60   0.0000       4.656863       126.7197 
  61   0.0000       5.034005       136.9822 
  62   0.0000       5.367132       146.0471 
  63   0.0000       5.462874       148.6524 
  64   0.0000       5.564734       151.4241 
  65   0.0000       6.090607       165.7338 
  66   0.0000       6.164910       167.7557 
  67   0.0000       7.803154       212.3346 
  68   0.0000      29.114167       792.2368 
  69   0.0000      37.142606      1010.7017 
  70   0.0000      37.208195      1012.4865 
  71   0.0000      37.208877      1012.5050 
  72   0.0000     133.555979      3634.2430 

                    ********************************
                    * MULLIKEN POPULATION ANALYSIS *
                    ********************************

--------------------------------------------
MULLIKEN ATOMIC CHARGES AND SPIN POPULATIONS
--------------------------------------------
   0 C :   -0.428839    1.101778
   1 H :    0.141356   -0.033513
   2 H :    0.138430   -0.035281
   3 H :    0.149053   -0.032984
Sum of atomic charges         :   -0.0000000
Sum of atomic spin populations:    1.0000000

-----------------------------------------------------
MULLIKEN REDUCED ORBITAL CHARGES AND SPIN POPULATIONS
-----------------------------------------------------
CHARGE
  0 C s       :     3.328619  s :     3.328619
      pz      :     0.968351  p :     3.073219
      px      :     1.046708
      py      :     1.058161
      dz2     :     0.005596  d :     0.023934
      dxz     :     0.000433
      dyz     :     0.000130
      dx2y2   :     0.009556
      dxy     :     0.008219
      f0      :     0.000065  f :     0.003068
      f+1     :     0.000687
      f-1     :     0.000664
      f+2     :     0.000025
      f-2     :     0.000047
      f+3     :     0.000116
      f-3     :     0.001465
  1 H s       :     0.831049  s :     0.831049
      pz      :     0.010790  p :     0.027595
      px      :     0.006887
      py      :     0.009918
  2 H s       :     0.835175  s :     0.835175
      pz      :     0.010353  p :     0.026395
      px      :     0.008948
      py      :     0.007094
  3 H s       :     0.823536  s :     0.823536
      pz      :     0.010983  p :     0.027411
      px      :     0.009302
      py      :     0.007126

SPIN
  0 C s       :     0.067695  s :     0.067695
      pz      :     0.954949  p :     1.038435
      px      :     0.045357
      py      :     0.038130
      dz2     :    -0.004564  d :    -0.003002
      dxz     :    -0.000137
      dyz     :    -0.000029
      dx2y2   :     0.000936
      dxy     :     0.000792
      f0      :    -0.000040  f :    -0.001351
      f+1     :    -0.000606
      f-1     :    -0.000609
      f+2     :    -0.000015
      f-2     :    -0.000022
      f+3     :     0.000001
      f-3     :    -0.000059
  1 H s       :    -0.043727  s :    -0.043727
      pz      :     0.010687  p :     0.010214
      px      :    -0.000293
      py      :    -0.000181
  2 H s       :    -0.045043  s :    -0.045043
      pz      :     0.010151  p :     0.009761
      px      :     0.000001
      py      :    -0.000390
  3 H s       :    -0.043796  s :    -0.043796
      pz      :     0.010901  p :     0.010812
      px      :     0.000011
      py      :    -0.000100


                     *******************************
                     * LOEWDIN POPULATION ANALYSIS *
                     *******************************

-------------------------------------------
LOEWDIN ATOMIC CHARGES AND SPIN POPULATIONS
-------------------------------------------
   0 C :   -0.145971    0.905019
   1 H :    0.040092    0.034437
   2 H :    0.054715    0.029556
   3 H :    0.051165    0.030988

----------------------------------------------------
LOEWDIN REDUCED ORBITAL CHARGES AND SPIN POPULATIONS
----------------------------------------------------
CHARGE
  0 C s       :     2.877125  s :     2.877125
      pz      :     0.873571  p :     3.169722
      px      :     1.141173
      py      :     1.154978
      dz2     :     0.007107  d :     0.091402
      dxz     :     0.001115
      dyz     :     0.000458
      dx2y2   :     0.043208
      dxy     :     0.039513
      f0      :     0.000328  f :     0.007723
      f+1     :     0.001916
      f-1     :     0.001850
      f+2     :     0.000073
      f-2     :     0.000150
      f+3     :     0.000364
      f-3     :     0.003042
  1 H s       :     0.806796  s :     0.806796
      pz      :     0.045032  p :     0.153112
      px      :     0.035197
      py      :     0.072883
  2 H s       :     0.802115  s :     0.802115
      pz      :     0.042275  p :     0.143171
      px      :     0.059089
      py      :     0.041806
  3 H s       :     0.803765  s :     0.803765
      pz      :     0.042647  p :     0.145071
      px      :     0.063012
      py      :     0.039412

SPIN
  0 C s       :     0.019275  s :     0.019275
      pz      :     0.858731  p :     0.894464
      px      :     0.020434
      py      :     0.015300
      dz2     :    -0.003948  d :    -0.007409
      dxz     :    -0.000177
      dyz     :    -0.000042
      dx2y2   :    -0.001695
      dxy     :    -0.001547
      f0      :     0.000135  f :    -0.001311
      f+1     :    -0.000543
      f-1     :    -0.000551
      f+2     :    -0.000015
      f-2     :    -0.000026
      f+3     :    -0.000023
      f-3     :    -0.000287
  1 H s       :    -0.015670  s :    -0.015670
      pz      :     0.044575  p :     0.050107
      px      :     0.001074
      py      :     0.004457
  2 H s       :    -0.016820  s :    -0.016820
      pz      :     0.041065  p :     0.046376
      px      :     0.004017
      py      :     0.001294
  3 H s       :    -0.017087  s :    -0.017087
      pz      :     0.042242  p :     0.048075
      px      :     0.004340
      py      :     0.001493


                      *****************************
                      * MAYER POPULATION ANALYSIS *
                      *****************************

  NA   - Mulliken gross atomic population
  ZA   - Total nuclear charge
  QA   - Mulliken gross atomic charge
  VA   - Mayer's total valence
  BVA  - Mayer's bonded valence
  FA   - Mayer's free valence

  ATOM       NA         ZA         QA         VA         BVA        FA
  0 C      6.4288     6.0000    -0.4288     3.8790     2.9348     0.9443
  1 H      0.8586     1.0000     0.1414     0.9817     0.9798     0.0019
  2 H      0.8616     1.0000     0.1384     0.9825     0.9805     0.0020
  3 H      0.8509     1.0000     0.1491     0.9869     0.9849     0.0019

  Mayer bond orders larger than 0.100000
B(  0-C ,  1-H ) :   0.9788 B(  0-C ,  2-H ) :   0.9790 B(  0-C ,  3-H ) :   0.9770 


-------
TIMINGS
-------

Total SCF time: 0 days 0 hours 0 min 4 sec 

Total time                  ....       4.696 sec
Sum of individual times     ....       4.026 sec  ( 85.7%)

Fock matrix formation       ....       3.247 sec  ( 69.1%)
  Split-RI-J                ....       0.416 sec  ( 12.8% of F)
  Chain of spheres X        ....       0.815 sec  ( 25.1% of F)
  XC integration            ....       1.312 sec  ( 40.4% of F)
    Basis function eval.    ....       0.101 sec  (  7.7% of XC)
    Density eval.           ....       0.092 sec  (  7.0% of XC)
    XC-Functional eval.     ....       0.080 sec  (  6.1% of XC)
    XC-Potential eval.      ....       0.143 sec  ( 10.9% of XC)
Diagonalization             ....       0.047 sec  (  1.0%)
Density matrix formation    ....       0.004 sec  (  0.1%)
Population analysis         ....       0.048 sec  (  1.0%)
Initial guess               ....       0.100 sec  (  2.1%)
Orbital Transformation      ....       0.000 sec  (  0.0%)
Orbital Orthonormalization  ....       0.000 sec  (  0.0%)
DIIS solution               ....       0.052 sec  (  1.1%)
Grid generation             ....       0.528 sec  ( 11.2%)

Maximum memory used throughout the entire SCF-calculation: 59.0 MB

-------------------------   --------------------
FINAL SINGLE POINT ENERGY       -39.826907255860
-------------------------   --------------------

   --->>> g-tensor requested, so NeedSOC=true

                            ***************************************
                            *     ORCA property calculations      *
                            ***************************************

                                    ---------------------
                                    Active property flags
                                    ---------------------
   (+) Dipole Moment
   (+) g-tensor
   (+) Nuclear properties (Hyperfine,Quadrupole)
   (+) Spin-Orbit Integrals are needed


------------------------------------------------------------------------------
                       ORCA ELECTRIC PROPERTIES CALCULATION
------------------------------------------------------------------------------

Dipole Moment Calculation                       ... on
Quadrupole Moment Calculation                   ... off
Polarizability Calculation                      ... off
GBWName                                         ... /home/rwth0701/scratch/cs681498/orcajob__30556344-gZPP/9546.gbw
Electron density                                ... /home/rwth0701/scratch/cs681498/orcajob__30556344-gZPP/9546.scfp
The origin for moment calculation is the CENTER OF MASS  = (-64.520752, -101.040809 -36.215564)

-------------
DIPOLE MOMENT
-------------
                                X             Y             Z
Electronic contribution:     -0.08521       0.02246       0.04709
Nuclear contribution   :      0.09133      -0.03244      -0.07153
                        -----------------------------------------
Total Dipole Moment    :      0.00612      -0.00997      -0.02445
                        -----------------------------------------
Magnitude (a.u.)       :      0.02710
Magnitude (Debye)      :      0.06889



--------------------
Rotational spectrum 
--------------------
 
Rotational constants in cm-1:    10.647442     8.814831     4.827799 
Rotational constants in MHz : 319202.288193 264261.993084 144733.779638 

 Dipole components along the rotational axes: 
x,y,z [a.u.] :    -0.011097     0.004953    -0.024225 
x,y,z [Debye]:    -0.028207     0.012590    -0.061574 

 


           ************************************************************
           *        Program running with 4 parallel MPI-processes     *
           *              working on a common directory               *
           ************************************************************
------------------------------------------------------------------------------
                         ORCA SPIN-ORBIT COUPLING CALCULATION
------------------------------------------------------------------------------

GBW file                                    ... /home/rwth0701/scratch/cs681498/orcajob__30556344-gZPP/9546.gbw
Input density                               ... /home/rwth0701/scratch/cs681498/orcajob__30556344-gZPP/9546.scfp
Output integrals                            ... /home/rwth0701/scratch/cs681498/orcajob__30556344-gZPP/9546
Operator type                               ... Mean-field/Effective potential
   One-Electron Terms                       ... 1
   Coulomb Contribution                     ... 3
   Exchange Contribution                    ... 3
   Correlation Contribution                 ... 0
   Maximum number of centers                ... 4
SHARK 2-electron RIJ-SOMF                   ... done (  0.1 sec)
SHARK 1-electron  MaxCenter=4               ... done (  0.0 sec)
SHARK 2-electron DoJ,X=0,1 MaxCenter=1      ... done (  0.1 sec)

Maximum memory used throughout the entire SOC-calculation: 11.3 MB
Total time for SOC:  2.126


           ************************************************************
           *        Program running with 4 parallel MPI-processes     *
           *              working on a common directory               *
           ************************************************************
------------------------------------------------------------------------------
                                ORCA EPR/NMR CALCULATION
------------------------------------------------------------------------------

GBWName                      ... /home/rwth0701/scratch/cs681498/orcajob__30556344-gZPP/9546.gbw
Electron density             ... /home/rwth0701/scratch/cs681498/orcajob__30556344-gZPP/9546.scfp
Spin density                 ... /home/rwth0701/scratch/cs681498/orcajob__30556344-gZPP/9546.scfr
Spin-orbit integrals         ... /home/rwth0701/scratch/cs681498/orcajob__30556344-gZPP/9546
Treatment of gauge           ... GIAO (approximations 1/2el = 0,0)
Details of the CP(SCF) procedure:
       Solver   = POPLE   
       MaxIter  =    64   
       Tolerance=    1.000e-03
       COSX Grid=     1   
       Op-0     =   0-  4 =>   5- 72
       Op-1     =   0-  3 =>   4- 72
Multiplicity                 ... 2
g-tensor                     ... 1
NMR chemical shifts          ... 0
NMR spin-spin couplings      ... 0
NMR spectrum                 ... 0
Number of nuclei for epr/nmr ... 4
   Nucleus:   1H 
       Hyperfine : Isotope=    1 I=   0.500 P= 533.551
       Quadrupole: Isotope=    2 I=   1.000 Q=   0.003
       Spin-Orbit: Zeff=   1.000
       Nuclear Spin-Spin: Gn=   0.000
       EPRNMR Input: 
       rho(0)=N f(grad)=N a(iso)=Y a(dip)=Y a(orb)=Y sigma(nmr)=N spin-spin(nmr)=all-N,DSO-N,PSO-N,FC-N,SD-N
   Nucleus:   2H 
       Hyperfine : Isotope=    1 I=   0.500 P= 533.551
       Quadrupole: Isotope=    2 I=   1.000 Q=   0.003
       Spin-Orbit: Zeff=   1.000
       Nuclear Spin-Spin: Gn=   0.000
       EPRNMR Input: 
       rho(0)=N f(grad)=N a(iso)=Y a(dip)=Y a(orb)=Y sigma(nmr)=N spin-spin(nmr)=all-N,DSO-N,PSO-N,FC-N,SD-N
   Nucleus:   3H 
       Hyperfine : Isotope=    1 I=   0.500 P= 533.551
       Quadrupole: Isotope=    2 I=   1.000 Q=   0.003
       Spin-Orbit: Zeff=   1.000
       Nuclear Spin-Spin: Gn=   0.000
       EPRNMR Input: 
       rho(0)=N f(grad)=N a(iso)=Y a(dip)=Y a(orb)=Y sigma(nmr)=N spin-spin(nmr)=all-N,DSO-N,PSO-N,FC-N,SD-N
   Nucleus:   0C 
       Hyperfine : Isotope=   13 I=   0.500 P= 134.190
       Quadrupole: Isotope=   13 I=   0.500 Q=   0.000
       Spin-Orbit: Zeff=   3.600
       Nuclear Spin-Spin: Gn=   0.000
       EPRNMR Input: 
       rho(0)=N f(grad)=N a(iso)=Y a(dip)=Y a(orb)=Y sigma(nmr)=N spin-spin(nmr)=all-N,DSO-N,PSO-N,FC-N,SD-N
Forming RHS of the CP-SCF equations         ... 
Calculating right hand sides for GIAO treatment        ... 
  Entering RightHandSide GIAO. ScalHFX=    0.2000 NeedHFX=1
     -> 1-electron GIAO integrals will be done analytically
     -> RIJCOSX used in SCF. Same chosen for GIAO calculation.
     Making grid for GIAO integrations   ...

GRID GIAO
---------

General Integration Accuracy     IntAcc      ... 4.388
Radial Grid Type                 RadialGrid  ... OptM3 with GC (2021)
Angular Grid (max. ang.)         AngularGrid ... 4 (Lebedev-302)
Angular grid pruning method      GridPruning ... 4 (adaptive)
Weight generation scheme         WeightScheme... Becke
Basis function cutoff            BFCut       ... 1.0000e-10
Integration weight cutoff        WCut        ... 1.0000e-14
Angular grids for H and He will be reduced by one unit
Partially contracted basis set               ... off
Rotationally invariant grid construction     ... off

Total number of grid points                  ...    17037
Total number of batches                      ...      269
Average number of points per batch           ...       63
Average number of grid points per atom       ...     4259

  One-electron GIAO integrals (SHARK)     ... done
  Calculating G(B)[P]                     ... (RI-J: SHARK-ok) (COSX-ok) (add-J+K:ok) => dG/dB done
  DFT XC-terms                            ... done
  Extracting occupied and virtual blocks  ... 
  Operator  0  NO=   5 NV=  68 
  Operator  1  NO=   4 NV=  69 
  Transforming and RHS contribution       ... done
  Adding eps_i * S(B)_ai terms            ... done
  Projecting overlap derivatives          ... done
  Building G[dS/dB_ij] (COSX)             ... done
  Transforming to MO basis                ... done
  Summing G[dS/dB_ij] into RHS contribs.  ... done

  GIAO profiling information: 
    Total GIAO time               ...       0.8 sec
       GIAO 1-electron integrals  ...       0.0 sec (  1.3%)
       GIAO G(dS/dB) terms        ...       0.1 sec ( 12.3%)
       GIAO RI-J                  ...       0.1 sec ( 13.5%)
       GIAO COSX                  ...       0.2 sec ( 19.5%)
       GIAO XC-terms              ...       0.3 sec ( 38.7%)

  GIAO right hand side done


------------------------------------------------------------------------------
                           ORCA CP-SCF CALCULATION
------------------------------------------------------------------------------

Input orbitals are from        ... /home/rwth0701/scratch/cs681498/orcajob__30556344-gZPP/9546.gbw
Input Perturbation             ... /home/rwth0701/scratch/cs681498/orcajob__30556344-gZPP/9546.pin.tmp
Wavefunction output            ... /home/rwth0701/scratch/cs681498/orcajob__30556344-gZPP/9546.pout.tmp
Perturbation mode              ... Imaginary perturbation
Solver                         ... POPLE
Max. number of iterations      ... 64
Convergence tolerance          ... 1.000e-03
Integral handling              ... Direct
DFT GridXC                     ... 1
COSX GridX                     ... 1
COSX IntAccX                   ... 3.067
COSX Algorithm                 ... Auto
Number of perturbations        ... 3
Number of operators            ... 2
Orbital ranges used for CP-SCF:
 Operator 0:  Orbitals   0...  4  to   5... 72
 Operator 1:  Orbitals   0...  3  to   4... 72
Variables per perturbation     ... 616
DFT calculation                         ... on
XC functional terms                     ... off
Hybrid DFT                              ... on
   Exchange mixing (SCF)                ...  0.200
   Exchange mixing (CP-SCF)             ...  0.200
   GGA exch. scaling(SCF)               ...  0.720
   GGA exch. scaling (CP-SCF)           ...  0.720
   GGA corr. scaling (SCF)              ...  0.810
   GGA corr. scaling (CP-SCF)           ...  0.810

CP-SCF GRID
-----------

General Integration Accuracy     IntAcc      ... 3.467
Radial Grid Type                 RadialGrid  ... OptM3 with GC (2021)
Angular Grid (max. ang.)         AngularGrid ... 1 (Lebedev-50)
Angular grid pruning method      GridPruning ... 4 (adaptive)
Weight generation scheme         WeightScheme... Becke
Basis function cutoff            BFCut       ... 1.0000e-10
Integration weight cutoff        WCut        ... 1.0000e-14
Angular grids for H and He will be reduced by one unit
Partially contracted basis set               ... off
Rotationally invariant grid construction     ... off

Total number of grid points                  ...     2341
Total number of batches                      ...       38
Average number of points per batch           ...       61
Average number of grid points per atom       ...      585

CP-SCF GRIDX
------------

General Integration Accuracy     IntAcc      ... 3.067
Radial Grid Type                 RadialGrid  ... OptM3 with GC (2021)
Angular Grid (max. ang.)         AngularGrid ... 1 (Lebedev-50)
Angular grid pruning method      GridPruning ... 4 (adaptive)
Weight generation scheme         WeightScheme... Becke
Basis function cutoff            BFCut       ... 1.0000e-10
Integration weight cutoff        WCut        ... 1.0000e-14
Angular grids for H and He will be reduced by one unit
Partially contracted basis set               ... on
Rotationally invariant grid construction     ... off

Total number of grid points                  ...     1073
Total number of batches                      ...       20
Average number of points per batch           ...       53
Average number of grid points per atom       ...      268

Memory available               ... 1014.6 MB
Memory needed per perturbation ...   0.4 MB
Perturbations treated per batch... 3
Number of batches              ... 1
     CP-SCF ITERATION   0:   5.3168e+00 (   0.1 sec   0/  3 done)
     CP-SCF ITERATION   1:   3.8964e-02 (   0.1 sec   0/  3 done)
     CP-SCF ITERATION   2:   3.1612e-03 (   0.1 sec   0/  3 done)
     CP-SCF ITERATION   3:   1.7466e-04 (   0.1 sec   3/  3 done)
                    *** THE CP-SCF HAS CONVERGED ***

Forming final perturbed densities           ... done
Transforming perturbed density to AO basis  ... done

Magnetic field perturbation calculated in  1.245 sec
GIAO: Diamagnetic terms      (analytic)     (SHARK) ... done
GIAO: 1el-Paramagnetic terms (analytic)     (SHARK) ... done

-------------------
ELECTRONIC G-MATRIX
-------------------

 The g-matrix: 
              2.0029278   -0.0000180   -0.0000669
             -0.0000183    2.0029028   -0.0000369
             -0.0000848   -0.0000675    2.0022453

 gel          2.0023193    2.0023193    2.0023193
 gRMC        -0.0001266   -0.0001266   -0.0001266
 gDSO(tot)    0.0000343    0.0000708    0.0000711
 gPSO(tot)    0.0000056    0.0006391    0.0006769
             ----------   ----------   ----------
 g(tot)       2.0022326    2.0029026    2.0029407 iso=  2.0026920
 Delta-g     -0.0000867    0.0005833    0.0006214 iso=  0.0003727
 Orientation: 
  X           0.1101700    0.3349497   -0.9357731
  Y           0.0801356    0.9354456    0.3442669
  Z           0.9906770   -0.1129166    0.0762166

Notes:  (1) The g-matrix conforms to the "BgS" spin Hamiltonian convention. 
        (2) The principal values are square roots of the eigenvalues of g*gT.
        (3) Orientations are eigenvectors of g*gT written as column vectors.
        (4) Individual contributions are projections of the full matrices onto the eigenvectors of g*gT.
        (5) Tensor is right-handed.


-----------------------------------------
ELECTRIC AND MAGNETIC HYPERFINE STRUCTURE
-----------------------------------------

 -----------------------------------------------------------
 Nucleus   1H : A:ISTP=    1 I=  0.5 P=533.5514 MHz/au**3
                Q:ISTP=    2 I=  1.0 Q=  0.0029 barn     
 -----------------------------------------------------------
 Solving for nuclear perturbation:
Forming RHS of the CP-SCF equations         ... 
Calc. nucleus orbit integrals (SHARK)       ... done

------------------------------------------------------------------------------
                           ORCA CP-SCF CALCULATION
------------------------------------------------------------------------------

Input orbitals are from        ... /home/rwth0701/scratch/cs681498/orcajob__30556344-gZPP/9546.gbw
Input Perturbation             ... /home/rwth0701/scratch/cs681498/orcajob__30556344-gZPP/9546.pin.tmp
Wavefunction output            ... /home/rwth0701/scratch/cs681498/orcajob__30556344-gZPP/9546.pout.tmp
Perturbation mode              ... Imaginary perturbation
Solver                         ... POPLE
Max. number of iterations      ... 64
Convergence tolerance          ... 1.000e-03
Integral handling              ... Direct
DFT GridXC                     ... 1
COSX GridX                     ... 1
COSX IntAccX                   ... 3.067
COSX Algorithm                 ... Auto
Number of perturbations        ... 3
Number of operators            ... 2
Orbital ranges used for CP-SCF:
 Operator 0:  Orbitals   0...  4  to   5... 72
 Operator 1:  Orbitals   0...  3  to   4... 72
Variables per perturbation     ... 616
DFT calculation                         ... on
XC functional terms                     ... off
Hybrid DFT                              ... on
   Exchange mixing (SCF)                ...  0.200
   Exchange mixing (CP-SCF)             ...  0.200
   GGA exch. scaling(SCF)               ...  0.720
   GGA exch. scaling (CP-SCF)           ...  0.720
   GGA corr. scaling (SCF)              ...  0.810
   GGA corr. scaling (CP-SCF)           ...  0.810

CP-SCF GRID
-----------

General Integration Accuracy     IntAcc      ... 3.467
Radial Grid Type                 RadialGrid  ... OptM3 with GC (2021)
Angular Grid (max. ang.)         AngularGrid ... 1 (Lebedev-50)
Angular grid pruning method      GridPruning ... 4 (adaptive)
Weight generation scheme         WeightScheme... Becke
Basis function cutoff            BFCut       ... 1.0000e-10
Integration weight cutoff        WCut        ... 1.0000e-14
Angular grids for H and He will be reduced by one unit
Partially contracted basis set               ... off
Rotationally invariant grid construction     ... off

Total number of grid points                  ...     2341
Total number of batches                      ...       38
Average number of points per batch           ...       61
Average number of grid points per atom       ...      585

CP-SCF GRIDX
------------

General Integration Accuracy     IntAcc      ... 3.067
Radial Grid Type                 RadialGrid  ... OptM3 with GC (2021)
Angular Grid (max. ang.)         AngularGrid ... 1 (Lebedev-50)
Angular grid pruning method      GridPruning ... 4 (adaptive)
Weight generation scheme         WeightScheme... Becke
Basis function cutoff            BFCut       ... 1.0000e-10
Integration weight cutoff        WCut        ... 1.0000e-14
Angular grids for H and He will be reduced by one unit
Partially contracted basis set               ... on
Rotationally invariant grid construction     ... off

Total number of grid points                  ...     1073
Total number of batches                      ...       20
Average number of points per batch           ...       53
Average number of grid points per atom       ...      268

Memory available               ... 968.0 MB
Memory needed per perturbation ...   0.4 MB
Perturbations treated per batch... 3
Number of batches              ... 1
     CP-SCF ITERATION   0:   6.9178e-02 (   0.1 sec   0/  3 done)
     CP-SCF ITERATION   1:   2.4825e-03 (   0.1 sec   1/  3 done)
     CP-SCF ITERATION   2:   1.7496e-04 (   0.1 sec   3/  3 done)
                    *** THE CP-SCF HAS CONVERGED ***

Forming final perturbed densities           ... done
Transforming perturbed density to AO basis  ... done

 Raw HFC matrix (all values in MHz): 
 -----------------------------------
              -102.1299             -10.9150               4.5560
               -10.9146             -25.1975               0.2921
                 4.5559               0.2922             -60.8940

 A(FC)         -62.7556             -62.7556             -62.7556
 A(SD)          39.0661               2.3385             -41.4046
 A(ORB+DIA)      0.0136              -0.0007               0.0322    A(PC) =   0.0151
 A(ORB)          0.0085               0.0005               0.0307    A(PC) =   0.0132
 A(DIA)          0.0052              -0.0012               0.0015    A(PC) =   0.0019
             ----------           ----------           ----------
 A(Tot)        -23.6759             -60.4177            -104.1279    A(iso)=  -62.7405
 Orientation: 
  X           0.1383146            0.1024669           -0.9850734
  Y          -0.9903460            0.0235086           -0.1366096
  Z           0.0091598            0.9944586            0.1047292

Notes:  (1) The A matrix conforms to the "SAI" spin Hamiltonian convention.
        (2) Tensor is right-handed.

 -----------------------------------------------------------
 Nucleus   2H : A:ISTP=    1 I=  0.5 P=533.5514 MHz/au**3
                Q:ISTP=    2 I=  1.0 Q=  0.0029 barn     
 -----------------------------------------------------------
 Solving for nuclear perturbation:
Forming RHS of the CP-SCF equations         ... 
Calc. nucleus orbit integrals (SHARK)       ... done

------------------------------------------------------------------------------
                           ORCA CP-SCF CALCULATION
------------------------------------------------------------------------------

Input orbitals are from        ... /home/rwth0701/scratch/cs681498/orcajob__30556344-gZPP/9546.gbw
Input Perturbation             ... /home/rwth0701/scratch/cs681498/orcajob__30556344-gZPP/9546.pin.tmp
Wavefunction output            ... /home/rwth0701/scratch/cs681498/orcajob__30556344-gZPP/9546.pout.tmp
Perturbation mode              ... Imaginary perturbation
Solver                         ... POPLE
Max. number of iterations      ... 64
Convergence tolerance          ... 1.000e-03
Integral handling              ... Direct
DFT GridXC                     ... 1
COSX GridX                     ... 1
COSX IntAccX                   ... 3.067
COSX Algorithm                 ... Auto
Number of perturbations        ... 3
Number of operators            ... 2
Orbital ranges used for CP-SCF:
 Operator 0:  Orbitals   0...  4  to   5... 72
 Operator 1:  Orbitals   0...  3  to   4... 72
Variables per perturbation     ... 616
DFT calculation                         ... on
XC functional terms                     ... off
Hybrid DFT                              ... on
   Exchange mixing (SCF)                ...  0.200
   Exchange mixing (CP-SCF)             ...  0.200
   GGA exch. scaling(SCF)               ...  0.720
   GGA exch. scaling (CP-SCF)           ...  0.720
   GGA corr. scaling (SCF)              ...  0.810
   GGA corr. scaling (CP-SCF)           ...  0.810

CP-SCF GRID
-----------

General Integration Accuracy     IntAcc      ... 3.467
Radial Grid Type                 RadialGrid  ... OptM3 with GC (2021)
Angular Grid (max. ang.)         AngularGrid ... 1 (Lebedev-50)
Angular grid pruning method      GridPruning ... 4 (adaptive)
Weight generation scheme         WeightScheme... Becke
Basis function cutoff            BFCut       ... 1.0000e-10
Integration weight cutoff        WCut        ... 1.0000e-14
Angular grids for H and He will be reduced by one unit
Partially contracted basis set               ... off
Rotationally invariant grid construction     ... off

Total number of grid points                  ...     2341
Total number of batches                      ...       38
Average number of points per batch           ...       61
Average number of grid points per atom       ...      585

CP-SCF GRIDX
------------

General Integration Accuracy     IntAcc      ... 3.067
Radial Grid Type                 RadialGrid  ... OptM3 with GC (2021)
Angular Grid (max. ang.)         AngularGrid ... 1 (Lebedev-50)
Angular grid pruning method      GridPruning ... 4 (adaptive)
Weight generation scheme         WeightScheme... Becke
Basis function cutoff            BFCut       ... 1.0000e-10
Integration weight cutoff        WCut        ... 1.0000e-14
Angular grids for H and He will be reduced by one unit
Partially contracted basis set               ... on
Rotationally invariant grid construction     ... off

Total number of grid points                  ...     1073
Total number of batches                      ...       20
Average number of points per batch           ...       53
Average number of grid points per atom       ...      268

Memory available               ... 967.8 MB
Memory needed per perturbation ...   0.4 MB
Perturbations treated per batch... 3
Number of batches              ... 1
     CP-SCF ITERATION   0:   6.0486e-02 (   0.1 sec   0/  3 done)
     CP-SCF ITERATION   1:   2.3274e-03 (   0.1 sec   0/  3 done)
     CP-SCF ITERATION   2:   2.1538e-04 (   0.1 sec   3/  3 done)
                    *** THE CP-SCF HAS CONVERGED ***

Forming final perturbed densities           ... done
Transforming perturbed density to AO basis  ... done

 Raw HFC matrix (all values in MHz): 
 -----------------------------------
               -44.5591              32.6324              -4.6829
                32.6320             -84.5141              -2.5731
                -4.6828              -2.5731             -62.0342

 A(FC)         -63.7173             -63.7173             -63.7173
 A(SD)          38.2093               0.9026             -39.1120
 A(ORB+DIA)      0.0143              -0.0007               0.0309    A(PC) =   0.0148
 A(ORB)          0.0095               0.0004               0.0295    A(PC) =   0.0131
 A(DIA)          0.0048              -0.0011               0.0014    A(PC) =   0.0017
             ----------           ----------           ----------
 A(Tot)        -25.4936             -62.8154            -102.7984    A(iso)=  -63.7025
 Orientation: 
  X           0.8632504            0.1256831            0.4888788
  Y           0.4835966            0.0716793           -0.8723511
  Z          -0.1446823            0.9894776            0.0010972

Notes:  (1) The A matrix conforms to the "SAI" spin Hamiltonian convention.
        (2) Tensor is right-handed.

 -----------------------------------------------------------
 Nucleus   3H : A:ISTP=    1 I=  0.5 P=533.5514 MHz/au**3
                Q:ISTP=    2 I=  1.0 Q=  0.0029 barn     
 -----------------------------------------------------------
 Solving for nuclear perturbation:
Forming RHS of the CP-SCF equations         ... 
Calc. nucleus orbit integrals (SHARK)       ... done

------------------------------------------------------------------------------
                           ORCA CP-SCF CALCULATION
------------------------------------------------------------------------------

Input orbitals are from        ... /home/rwth0701/scratch/cs681498/orcajob__30556344-gZPP/9546.gbw
Input Perturbation             ... /home/rwth0701/scratch/cs681498/orcajob__30556344-gZPP/9546.pin.tmp
Wavefunction output            ... /home/rwth0701/scratch/cs681498/orcajob__30556344-gZPP/9546.pout.tmp
Perturbation mode              ... Imaginary perturbation
Solver                         ... POPLE
Max. number of iterations      ... 64
Convergence tolerance          ... 1.000e-03
Integral handling              ... Direct
DFT GridXC                     ... 1
COSX GridX                     ... 1
COSX IntAccX                   ... 3.067
COSX Algorithm                 ... Auto
Number of perturbations        ... 3
Number of operators            ... 2
Orbital ranges used for CP-SCF:
 Operator 0:  Orbitals   0...  4  to   5... 72
 Operator 1:  Orbitals   0...  3  to   4... 72
Variables per perturbation     ... 616
DFT calculation                         ... on
XC functional terms                     ... off
Hybrid DFT                              ... on
   Exchange mixing (SCF)                ...  0.200
   Exchange mixing (CP-SCF)             ...  0.200
   GGA exch. scaling(SCF)               ...  0.720
   GGA exch. scaling (CP-SCF)           ...  0.720
   GGA corr. scaling (SCF)              ...  0.810
   GGA corr. scaling (CP-SCF)           ...  0.810

CP-SCF GRID
-----------

General Integration Accuracy     IntAcc      ... 3.467
Radial Grid Type                 RadialGrid  ... OptM3 with GC (2021)
Angular Grid (max. ang.)         AngularGrid ... 1 (Lebedev-50)
Angular grid pruning method      GridPruning ... 4 (adaptive)
Weight generation scheme         WeightScheme... Becke
Basis function cutoff            BFCut       ... 1.0000e-10
Integration weight cutoff        WCut        ... 1.0000e-14
Angular grids for H and He will be reduced by one unit
Partially contracted basis set               ... off
Rotationally invariant grid construction     ... off

Total number of grid points                  ...     2341
Total number of batches                      ...       38
Average number of points per batch           ...       61
Average number of grid points per atom       ...      585

CP-SCF GRIDX
------------

General Integration Accuracy     IntAcc      ... 3.067
Radial Grid Type                 RadialGrid  ... OptM3 with GC (2021)
Angular Grid (max. ang.)         AngularGrid ... 1 (Lebedev-50)
Angular grid pruning method      GridPruning ... 4 (adaptive)
Weight generation scheme         WeightScheme... Becke
Basis function cutoff            BFCut       ... 1.0000e-10
Integration weight cutoff        WCut        ... 1.0000e-14
Angular grids for H and He will be reduced by one unit
Partially contracted basis set               ... on
Rotationally invariant grid construction     ... off

Total number of grid points                  ...     1073
Total number of batches                      ...       20
Average number of points per batch           ...       53
Average number of grid points per atom       ...      268

Memory available               ... 967.7 MB
Memory needed per perturbation ...   0.4 MB
Perturbations treated per batch... 3
Number of batches              ... 1
     CP-SCF ITERATION   0:   6.7607e-02 (   0.1 sec   0/  3 done)
     CP-SCF ITERATION   1:   2.7262e-03 (   0.1 sec   1/  3 done)
     CP-SCF ITERATION   2:   2.2778e-04 (   0.1 sec   3/  3 done)
                    *** THE CP-SCF HAS CONVERGED ***

Forming final perturbed densities           ... done
Transforming perturbed density to AO basis  ... done

 Raw HFC matrix (all values in MHz): 
 -----------------------------------
               -43.2283             -30.9331               0.5459
               -30.9326             -90.6392               4.0118
                 0.5459               4.0118             -65.4447

 A(FC)         -66.4518             -66.4518             -66.4518
 A(SD)          38.5205               1.3247             -39.8451
 A(ORB+DIA)      0.0135              -0.0007               0.0303    A(PC) =   0.0144
 A(ORB)          0.0085               0.0005               0.0289    A(PC) =   0.0126
 A(DIA)          0.0050              -0.0012               0.0014    A(PC) =   0.0017
             ----------           ----------           ----------
 A(Tot)        -27.9178             -65.1278            -106.2666    A(iso)=  -66.4374
 Orientation: 
  X           0.8954536            0.0723305           -0.4392393
  Y          -0.4438223            0.0687685           -0.8934723
  Z          -0.0344195            0.9950071            0.0936809

Notes:  (1) The A matrix conforms to the "SAI" spin Hamiltonian convention.
        (2) Tensor is right-handed.

 -----------------------------------------------------------
 Nucleus   0C : A:ISTP=   13 I=  0.5 P=134.1903 MHz/au**3
                Q:ISTP=   13 I=  0.5 Q=  0.0000 barn     
 -----------------------------------------------------------
 Solving for nuclear perturbation:
Forming RHS of the CP-SCF equations         ... 
Calc. nucleus orbit integrals (SHARK)       ... done

------------------------------------------------------------------------------
                           ORCA CP-SCF CALCULATION
------------------------------------------------------------------------------

Input orbitals are from        ... /home/rwth0701/scratch/cs681498/orcajob__30556344-gZPP/9546.gbw
Input Perturbation             ... /home/rwth0701/scratch/cs681498/orcajob__30556344-gZPP/9546.pin.tmp
Wavefunction output            ... /home/rwth0701/scratch/cs681498/orcajob__30556344-gZPP/9546.pout.tmp
Perturbation mode              ... Imaginary perturbation
Solver                         ... POPLE
Max. number of iterations      ... 64
Convergence tolerance          ... 1.000e-03
Integral handling              ... Direct
DFT GridXC                     ... 1
COSX GridX                     ... 1
COSX IntAccX                   ... 3.067
COSX Algorithm                 ... Auto
Number of perturbations        ... 3
Number of operators            ... 2
Orbital ranges used for CP-SCF:
 Operator 0:  Orbitals   0...  4  to   5... 72
 Operator 1:  Orbitals   0...  3  to   4... 72
Variables per perturbation     ... 616
DFT calculation                         ... on
XC functional terms                     ... off
Hybrid DFT                              ... on
   Exchange mixing (SCF)                ...  0.200
   Exchange mixing (CP-SCF)             ...  0.200
   GGA exch. scaling(SCF)               ...  0.720
   GGA exch. scaling (CP-SCF)           ...  0.720
   GGA corr. scaling (SCF)              ...  0.810
   GGA corr. scaling (CP-SCF)           ...  0.810

CP-SCF GRID
-----------

General Integration Accuracy     IntAcc      ... 3.467
Radial Grid Type                 RadialGrid  ... OptM3 with GC (2021)
Angular Grid (max. ang.)         AngularGrid ... 1 (Lebedev-50)
Angular grid pruning method      GridPruning ... 4 (adaptive)
Weight generation scheme         WeightScheme... Becke
Basis function cutoff            BFCut       ... 1.0000e-10
Integration weight cutoff        WCut        ... 1.0000e-14
Angular grids for H and He will be reduced by one unit
Partially contracted basis set               ... off
Rotationally invariant grid construction     ... off

Total number of grid points                  ...     2341
Total number of batches                      ...       38
Average number of points per batch           ...       61
Average number of grid points per atom       ...      585

CP-SCF GRIDX
------------

General Integration Accuracy     IntAcc      ... 3.067
Radial Grid Type                 RadialGrid  ... OptM3 with GC (2021)
Angular Grid (max. ang.)         AngularGrid ... 1 (Lebedev-50)
Angular grid pruning method      GridPruning ... 4 (adaptive)
Weight generation scheme         WeightScheme... Becke
Basis function cutoff            BFCut       ... 1.0000e-10
Integration weight cutoff        WCut        ... 1.0000e-14
Angular grids for H and He will be reduced by one unit
Partially contracted basis set               ... on
Rotationally invariant grid construction     ... off

Total number of grid points                  ...     1073
Total number of batches                      ...       20
Average number of points per batch           ...       53
Average number of grid points per atom       ...      268

Memory available               ... 967.6 MB
Memory needed per perturbation ...   0.4 MB
Perturbations treated per batch... 3
Number of batches              ... 1
     CP-SCF ITERATION   0:   1.1178e+00 (   0.1 sec   0/  3 done)
     CP-SCF ITERATION   1:   4.2240e-02 (   0.1 sec   0/  3 done)
     CP-SCF ITERATION   2:   2.9914e-03 (   0.1 sec   0/  3 done)
     CP-SCF ITERATION   3:   1.5498e-04 (   0.1 sec   3/  3 done)
                    *** THE CP-SCF HAS CONVERGED ***

Forming final perturbed densities           ... done
Transforming perturbed density to AO basis  ... done

 Raw HFC matrix (all values in MHz): 
 -----------------------------------
                 3.1955               1.6090              23.6524
                 1.6090               1.7757              13.2992
                23.6524              13.2992             238.7778

 A(FC)          81.3624              81.3624              81.3624
 A(SD)         -80.5651             -79.9605             160.5256
 A(ORB+DIA)     -0.1605              -0.1659              -0.0120    A(PC) =  -0.1128
 A(ORB)         -0.1609              -0.1663              -0.0119    A(PC) =  -0.1130
 A(DIA)          0.0004               0.0004              -0.0001    A(PC) =   0.0002
             ----------           ----------           ----------
 A(Tot)          0.6369               1.2360             241.8761    A(iso)=   81.2497
 Orientation: 
  X           0.8078834            0.5809962            0.0988321
  Y          -0.5874303            0.8073560            0.0556949
  Z          -0.0474342           -0.1030519            0.9935443

Notes:  (1) The A matrix conforms to the "SAI" spin Hamiltonian convention.
        (2) Tensor is right-handed.


--------------------------------------------------------------------------------
----------------------------------------------------------------------------
                           ORCA EULER ANGLE PROGRAM
----------------------------------------------------------------------------

Only g-tensor available        -->  using g-tensor as reference tensor

Reference tensor               ...  g

g-tensor ordering              ...  |g_min> --> |gx>
                                    |g_mid> --> |gy>
                                    |g_max> --> |gz>

A- and EFG-tensor ordering     ...  the axes |Ax>, |Qx>, |Ay>, etc. are assigned
                                    such that the Euler rotation is minimal. You
                                    can find the respective eigenvalues as Ax,
                                    EFGx, Ay, etc. in the tables below.
                                    The relation of |Ax>, |Ay>,  etc. to Amin, Amid, etc.
                                    (as printed in the ORCA EPR/NMR CALCULATION Output)
                                    is obtained in the detailed printout.

Euler rotation around          ...  z - y - z
   First rotation              -->  by alpha around z
   Second rotation             -->  by beta around y'
   Third rotation              -->  by gamma around z''
   Positive / Negative angle   -->  clockwise / counterclockwise rotation

Plot EFG-tensors                    (-)
Plot HFC-tensors                    (-)
Detailed Printout                   (-)

-------------------------------------------------------------------------
          Euler rotation of hyperfine tensor to g-tensor
-------------------------------------------------------------------------

-------------------------------------------------------------------
 Atom  |   Alpha    Beta    Gamma   |   Ax       Ay       Az 
       |          [degrees]         |           [MHz]         
-------------------------------------------------------------------
  1H       91.5     28.0    -88.1     -60.42   -23.68  -104.13
  2H      -91.5     40.7     91.3     -62.82   -25.49  -102.80
  3H      -73.9      6.6     75.4     -65.13  -106.27   -27.92
  0C      -89.5     15.9     91.1     241.88     1.24     0.64
-------------------------------------------------------------------


Maximum memory used throughout the entire EPRNMR-calculation: 67.6 MB

Timings for individual modules:

Sum of individual times         ...       19.084 sec (=   0.318 min)
GTO integral calculation        ...        3.764 sec (=   0.063 min)  19.7 %
Spin-Orbit-Coupling Matrices    ...        2.118 sec (=   0.035 min)  11.1 %
SCF iterations                  ...        7.083 sec (=   0.118 min)  37.1 %
EPR/NMR calculation             ...        6.119 sec (=   0.102 min)  32.1 %
                             ****ORCA TERMINATED NORMALLY****
TOTAL RUN TIME: 0 days 0 hours 0 minutes 21 seconds 582 msec
