Job execution start: Mon Oct 24 22:42:55 CEST 2022
Shared library path: /home/cs681498/orca:/opt/MPI/openmpi-4.1.1/linux/gcc_4.8.5/lib:/opt/MPI/openmpi-4.1.1/linux/gcc_4.8.5/lib/lib32
Slurm Job ID is: 30556508
Slurm Job name is: 16013
ncm0357

                                 *****************
                                 * O   R   C   A *
                                 *****************

                                            #,                                       
                                            ###                                      
                                            ####                                     
                                            #####                                    
                                            ######                                   
                                           ########,                                 
                                     ,,################,,,,,                         
                               ,,#################################,,                 
                          ,,##########################################,,             
                       ,#########################################, ''#####,          
                    ,#############################################,,   '####,        
                  ,##################################################,,,,####,       
                ,###########''''           ''''###############################       
              ,#####''   ,,,,##########,,,,          '''####'''          '####       
            ,##' ,,,,###########################,,,                        '##       
           ' ,,###''''                  '''############,,,                           
         ,,##''                                '''############,,,,        ,,,,,,###''
      ,#''                                            '''#######################'''  
     '                                                          ''''####''''         
             ,#######,   #######,   ,#######,      ##                                
            ,#'     '#,  ##    ##  ,#'     '#,    #''#        ######   ,####,        
            ##       ##  ##   ,#'  ##            #'  '#       #        #'  '#        
            ##       ##  #######   ##           ,######,      #####,   #    #        
            '#,     ,#'  ##    ##  '#,     ,#' ,#      #,         ##   #,  ,#        
             '#######'   ##     ##  '#######'  #'      '#     #####' # '####'        



                  #######################################################
                  #                        -***-                        #
                  #          Department of theory and spectroscopy      #
                  #    Directorship and core code : Frank Neese         #
                  #        Max Planck Institute fuer Kohlenforschung    #
                  #                Kaiser Wilhelm Platz 1               #
                  #                 D-45470 Muelheim/Ruhr               #
                  #                      Germany                        #
                  #                                                     #
                  #                  All rights reserved                #
                  #                        -***-                        #
                  #######################################################


                         Program Version 5.0.3 -  RELEASE  -


 With contributions from (in alphabetic order):
   Daniel Aravena         : Magnetic Suceptibility
   Michael Atanasov       : Ab Initio Ligand Field Theory (pilot matlab implementation)
   Alexander A. Auer      : GIAO ZORA, VPT2 properties, NMR spectrum
   Ute Becker             : Parallelization
   Giovanni Bistoni       : ED, misc. LED, open-shell LED, HFLD
   Martin Brehm           : Molecular dynamics
   Dmytro Bykov           : SCF Hessian
   Vijay G. Chilkuri      : MRCI spin determinant printing, contributions to CSF-ICE
   Dipayan Datta          : RHF DLPNO-CCSD density
   Achintya Kumar Dutta   : EOM-CC, STEOM-CC
   Dmitry Ganyushin       : Spin-Orbit,Spin-Spin,Magnetic field MRCI
   Miquel Garcia          : C-PCM and meta-GGA Hessian, CC/C-PCM, Gaussian charge scheme
   Yang Guo               : DLPNO-NEVPT2, F12-NEVPT2, CIM, IAO-localization
   Andreas Hansen         : Spin unrestricted coupled pair/coupled cluster methods
   Benjamin Helmich-Paris : MC-RPA, TRAH-SCF, COSX integrals
   Lee Huntington         : MR-EOM, pCC
   Robert Izsak           : Overlap fitted RIJCOSX, COSX-SCS-MP3, EOM
   Marcus Kettner         : VPT2
   Christian Kollmar      : KDIIS, OOCD, Brueckner-CCSD(T), CCSD density, CASPT2, CASPT2-K
   Simone Kossmann        : Meta GGA functionals, TD-DFT gradient, OOMP2, MP2 Hessian
   Martin Krupicka        : Initial AUTO-CI
   Lucas Lang             : DCDCAS
   Marvin Lechner         : AUTO-CI (C++ implementation), FIC-MRCC
   Dagmar Lenk            : GEPOL surface, SMD
   Dimitrios Liakos       : Extrapolation schemes; Compound Job, initial MDCI parallelization
   Dimitrios Manganas     : Further ROCIS development; embedding schemes
   Dimitrios Pantazis     : SARC Basis sets
   Anastasios Papadopoulos: AUTO-CI, single reference methods and gradients
   Taras Petrenko         : DFT Hessian,TD-DFT gradient, ASA, ECA, R-Raman, ABS, FL, XAS/XES, NRVS
   Peter Pinski           : DLPNO-MP2, DLPNO-MP2 Gradient
   Christoph Reimann      : Effective Core Potentials
   Marius Retegan         : Local ZFS, SOC
   Christoph Riplinger    : Optimizer, TS searches, QM/MM, DLPNO-CCSD(T), (RO)-DLPNO pert. Triples
   Tobias Risthaus        : Range-separated hybrids, TD-DFT gradient, RPA, STAB
   Michael Roemelt        : Original ROCIS implementation
   Masaaki Saitow         : Open-shell DLPNO-CCSD energy and density
   Barbara Sandhoefer     : DKH picture change effects
   Avijit Sen             : IP-ROCIS
   Kantharuban Sivalingam : CASSCF convergence, NEVPT2, FIC-MRCI
   Bernardo de Souza      : ESD, SOC TD-DFT
   Georgi Stoychev        : AutoAux, RI-MP2 NMR, DLPNO-MP2 response
   Willem Van den Heuvel  : Paramagnetic NMR
   Boris Wezisla          : Elementary symmetry handling
   Frank Wennmohs         : Technical directorship


 We gratefully acknowledge several colleagues who have allowed us to
 interface, adapt or use parts of their codes:
   Stefan Grimme, W. Hujo, H. Kruse, P. Pracht,  : VdW corrections, initial TS optimization,
                  C. Bannwarth, S. Ehlert          DFT functionals, gCP, sTDA/sTD-DF
   Ed Valeev, F. Pavosevic, A. Kumar             : LibInt (2-el integral package), F12 methods
   Garnet Chan, S. Sharma, J. Yang, R. Olivares  : DMRG
   Ulf Ekstrom                                   : XCFun DFT Library
   Mihaly Kallay                                 : mrcc  (arbitrary order and MRCC methods)
   Jiri Pittner, Ondrej Demel                    : Mk-CCSD
   Frank Weinhold                                : gennbo (NPA and NBO analysis)
   Christopher J. Cramer and Donald G. Truhlar   : smd solvation model
   Lars Goerigk                                  : TD-DFT with DH, B97 family of functionals
   V. Asgeirsson, H. Jonsson                     : NEB implementation
   FAccTs GmbH                                   : IRC, NEB, NEB-TS, DLPNO-Multilevel, CI-OPT
                                                   MM, QMMM, 2- and 3-layer-ONIOM, Crystal-QMMM,
                                                   LR-CPCM, SF, NACMEs, symmetry and pop. for TD-DFT,
                                                   nearIR, NL-DFT gradient (VV10), updates on ESD,
                                                   ML-optimized integration grids
   S Lehtola, MJT Oliveira, MAL Marques          : LibXC Library
   Liviu Ungur et al                             : ANISO software


 Your calculation uses the libint2 library for the computation of 2-el integrals
 For citations please refer to: http://libint.valeyev.net

 Your ORCA version has been built with support for libXC version: 5.1.0
 For citations please refer to: https://tddft.org/programs/libxc/

 This ORCA versions uses:
   CBLAS   interface :  Fast vector & matrix operations
   LAPACKE interface :  Fast linear algebra routines
   SCALAPACK package :  Parallel linear algebra routines
   Shared memory     :  Shared parallel matrices
   BLAS/LAPACK       :  OpenBLAS 0.3.15  USE64BITINT DYNAMIC_ARCH NO_AFFINITY SkylakeX SINGLE_THREADED
        Core in use  :  SkylakeX
   Copyright (c) 2011-2014, The OpenBLAS Project


================================================================================

----- Orbital basis set information -----
Your calculation utilizes the basis: EPR-III
   V. Barone, in Recent Advances in Density Functional Methods, Part 1 (ed. D. P. Chong), World Scientific, Singapore, 1995, p. 287.
   N. Rega, M. Cossi and V. Barone, J. Chem. Phys. 105, 11060 (1996).

----- AuxJ basis set information -----
Your calculation utilizes the AutoAux generation procedure.
  G. L. Stoychev, A. A. Auer, F. Neese, J. Chem. Theory Comput. 13, 554 (2017)

----- AuxC basis set information -----
Your calculation utilizes the AutoAux generation procedure.
  G. L. Stoychev, A. A. Auer, F. Neese, J. Chem. Theory Comput. 13, 554 (2017)

----- AuxJK basis set information -----
Your calculation utilizes the AutoAux generation procedure.
  G. L. Stoychev, A. A. Auer, F. Neese, J. Chem. Theory Comput. 13, 554 (2017)

================================================================================
                                        WARNINGS
                       Please study these warnings very carefully!
================================================================================


WARNING: your system is open-shell and RHF/RKS was chosen
  ===> : WILL SWITCH to UHF/UKS


INFO   : the flag for use of the SHARK integral package has been found!

================================================================================
                                       INPUT FILE
================================================================================
NAME = /home/rwth0701/scratch/cs681498/orcajob__30556508-mTgm/16013.inp
|  1> !B3LYP EPR-III Autoaux
|  2> !PAL4
|  3> 
|  4> * xyz 0 2
|  5>  C    -72.9641164316    -97.8044953377    -28.6875453388
|  6>  H    -72.7088548129    -96.7326659136    -28.5915542980
|  7>  H    -74.0073303974    -98.0413449543    -28.7491466313
|  8>  H    -72.2645714595    -98.6774879248    -28.7383146654
|  9> *
| 10> 
| 11> %EPRNMR
| 12>         GTENSOR   TRUE
| 13>         NUCLEI    = ALL H {AISO, ADIP, AORB}
| 14>         NUCLEI    = ALL C {AISO, ADIP, AORB}
| 15> END
| 16> 
| 17> 
| 18>                          ****END OF INPUT****
================================================================================

                       ****************************
                       * Single Point Calculation *
                       ****************************

---------------------------------
CARTESIAN COORDINATES (ANGSTROEM)
---------------------------------
  C    -72.964116  -97.804495  -28.687545
  H    -72.708855  -96.732666  -28.591554
  H    -74.007330  -98.041345  -28.749147
  H    -72.264571  -98.677488  -28.738315

----------------------------
CARTESIAN COORDINATES (A.U.)
----------------------------
  NO LB      ZA    FRAG     MASS         X           Y           Z
   0 C     6.0000    0    12.011  -137.882198  -184.823711  -54.211604
   1 H     1.0000    0     1.008  -137.399823  -182.798247  -54.030207
   2 H     1.0000    0     1.008  -139.853586  -185.271292  -54.328014
   3 H     1.0000    0     1.008  -136.560249  -186.473428  -54.307544

--------------------------------
INTERNAL COORDINATES (ANGSTROEM)
--------------------------------
 C      0   0   0     0.000000000000     0.00000000     0.00000000
 H      1   0   0     1.105979696134     0.00000000     0.00000000
 H      1   2   0     1.071535271730   116.35318857     0.00000000
 H      1   2   3     1.119846752750   127.97016715   179.37119505

---------------------------
INTERNAL COORDINATES (A.U.)
---------------------------
 C      0   0   0     0.000000000000     0.00000000     0.00000000
 H      1   0   0     2.089998735372     0.00000000     0.00000000
 H      1   2   0     2.024908206407   116.35318857     0.00000000
 H      1   2   3     2.116203674659   127.97016715   179.37119505

---------------------
BASIS SET INFORMATION
---------------------
There are 2 groups of distinct atoms

 Group   1 Type C   : 12s8p2d1f contracted to 8s5p2d1f pattern {51111111/41111/11/1}
 Group   2 Type H   : 7s2p contracted to 5s2p pattern {31111/11}

Atom   0C    basis set group =>   1
Atom   1H    basis set group =>   2
Atom   2H    basis set group =>   2
Atom   3H    basis set group =>   2
---------------------------------
AUXILIARY/J BASIS SET INFORMATION
---------------------------------
There are 2 groups of distinct atoms

 Group   1 Type C   : 20s17p16d8f3g contracted to 20s17p16d8f3g pattern {11111111111111111111/11111111111111111/1111111111111111/11111111/111}
 Group   2 Type H   : 17s7p3d contracted to 17s7p3d pattern {11111111111111111/1111111/111}

Atom   0C    basis set group =>   1
Atom   1H    basis set group =>   2
Atom   2H    basis set group =>   2
Atom   3H    basis set group =>   2
---------------------------------
AUXILIARY/C BASIS SET INFORMATION
---------------------------------
There are 2 groups of distinct atoms

 Group   1 Type C   : 20s17p16d8f3g contracted to 20s17p16d8f3g pattern {11111111111111111111/11111111111111111/1111111111111111/11111111/111}
 Group   2 Type H   : 17s7p3d contracted to 17s7p3d pattern {11111111111111111/1111111/111}

Atom   0C    basis set group =>   1
Atom   1H    basis set group =>   2
Atom   2H    basis set group =>   2
Atom   3H    basis set group =>   2
----------------------------------
AUXILIARY/JK BASIS SET INFORMATION
----------------------------------
There are 2 groups of distinct atoms

 Group   1 Type C   : 20s17p16d8f3g contracted to 20s17p16d8f3g pattern {11111111111111111111/11111111111111111/1111111111111111/11111111/111}
 Group   2 Type H   : 17s7p3d contracted to 17s7p3d pattern {11111111111111111/1111111/111}

Atom   0C    basis set group =>   1
Atom   1H    basis set group =>   2
Atom   2H    basis set group =>   2
Atom   3H    basis set group =>   2


           ************************************************************
           *        Program running with 4 parallel MPI-processes     *
           *              working on a common directory               *
           ************************************************************
------------------------------------------------------------------------------
                           ORCA GTO INTEGRAL CALCULATION
                           -- RI-GTO INTEGRALS CHOSEN --
------------------------------------------------------------------------------
------------------------------------------------------------------------------
                   ___                                                        
                  /   \      - P O W E R E D   B Y -                         
                 /     \                                                     
                 |  |  |   _    _      __       _____    __    __             
                 |  |  |  | |  | |    /  \     |  _  \  |  |  /  |          
                  \  \/   | |  | |   /    \    | | | |  |  | /  /          
                 / \  \   | |__| |  /  /\  \   | |_| |  |  |/  /          
                |  |  |   |  __  | /  /__\  \  |    /   |      \           
                |  |  |   | |  | | |   __   |  |    \   |  |\   \          
                \     /   | |  | | |  |  |  |  | |\  \  |  | \   \       
                 \___/    |_|  |_| |__|  |__|  |_| \__\ |__|  \__/        
                                                                              
                      - O R C A' S   B I G   F R I E N D -                    
                                      &                                       
                       - I N T E G R A L  F E E D E R -                       
                                                                              
 v1 FN, 2020, v2 2021                                                         
------------------------------------------------------------------------------


Reading SHARK input file /home/rwth0701/scratch/cs681498/orcajob__30556508-mTgm/16013.SHARKINP.tmp ... ok
----------------------
SHARK INTEGRAL PACKAGE
----------------------

Number of atoms                             ...      4
Number of basis functions                   ...     73
Number of shells                            ...     37
Maximum angular momentum                    ...      3
Integral batch strategy                     ... SHARK/LIBINT Hybrid
RI-J (if used) integral strategy            ... SPLIT-RIJ (Revised 2003 algorithm where possible)
Printlevel                                  ...      1
Contraction scheme used                     ... SEGMENTED contraction
Coulomb Range Separation                    ... NOT USED
Exchange Range Separation                   ... NOT USED
Finite Nucleus Model                        ... NOT USED
Auxiliary Coulomb fitting basis             ... AVAILABLE
   # of basis functions in Aux-J            ...    393
   # of shells in Aux-J                     ...    145
   Maximum angular momentum in Aux-J        ...      4
Auxiliary J/K fitting basis                 ... AVAILABLE
   # of basis functions in Aux-JK           ...    393
   # of shells in Aux-JK                    ...    145
   Maximum angular momentum in Aux-JK       ...      4
Auxiliary Correlation fitting basis         ... AVAILABLE
   # of basis functions in Aux-C            ...    393
   # of shells in Aux-C                     ...    145
   Maximum angular momentum in Aux-C        ...      4
Auxiliary 'external' fitting basis          ... NOT available
Integral threshold                          ...     1.000000e-10
Primitive cut-off                           ...     1.000000e-11
Primitive pair pre-selection threshold      ...     1.000000e-11

Calculating pre-screening integrals         ... done (  0.0 sec) Dimension = 37
Organizing shell pair data                  ... done (  0.0 sec)
Shell pair information
Total number of shell pairs                 ...       703
Shell pairs after pre-screening             ...       688
Total number of primitive shell pairs       ...      1300
Primitive shell pairs kept                  ...      1183
          la=0 lb=0:    261 shell pairs
          la=1 lb=0:    253 shell pairs
          la=1 lb=1:     66 shell pairs
          la=2 lb=0:     46 shell pairs
          la=2 lb=1:     22 shell pairs
          la=2 lb=2:      3 shell pairs
          la=3 lb=0:     23 shell pairs
          la=3 lb=1:     11 shell pairs
          la=3 lb=2:      2 shell pairs
          la=3 lb=3:      1 shell pairs

Calculating one electron integrals          ... done (  0.0 sec)
Calculating RI/J V-Matrix + Cholesky decomp.... done (  0.1 sec)
Calculating RI/JK V-Matrix + Cholesky decomp... done (  0.0 sec)
Calculating RI/C V-Matrix + Cholesky decomp.... done (  0.1 sec)
Calculating Nuclear repulsion               ... done (  0.0 sec) ENN=      9.504954726318 Eh

SHARK setup successfully completed in   0.6 seconds

Maximum memory used throughout the entire GTOINT-calculation: 13.7 MB


           ************************************************************
           *        Program running with 4 parallel MPI-processes     *
           *              working on a common directory               *
           ************************************************************
-------------------------------------------------------------------------------
                                 ORCA SCF
-------------------------------------------------------------------------------

------------
SCF SETTINGS
------------
Hamiltonian:
 Density Functional     Method          .... DFT(GTOs)
 Exchange Functional    Exchange        .... B88
   X-Alpha parameter    XAlpha          ....  0.666667
   Becke's b parameter  XBeta           ....  0.004200
 Correlation Functional Correlation     .... LYP
 LDA part of GGA corr.  LDAOpt          .... VWN-5
 Gradients option       PostSCFGGA      .... off
 Hybrid DFT is turned on
   Fraction HF Exchange ScalHFX         ....  0.200000
   Scaling of DF-GGA-X  ScalDFX         ....  0.720000
   Scaling of DF-GGA-C  ScalDFC         ....  0.810000
   Scaling of DF-LDA-C  ScalLDAC        ....  1.000000
   Perturbative correction              ....  0.000000
   Density functional embedding theory  .... OFF
   NL short-range parameter             ....  4.800000
 RI-approximation to the Coulomb term is turned on
   Number of AuxJ basis functions       .... 393
   RIJ-COSX (HFX calculated with COS-X)).... on


General Settings:
 Integral files         IntName         .... /home/rwth0701/scratch/cs681498/orcajob__30556508-mTgm/16013
 Hartree-Fock type      HFTyp           .... UHF
 Total Charge           Charge          ....    0
 Multiplicity           Mult            ....    2
 Number of Electrons    NEL             ....    9
 Basis Dimension        Dim             ....   73
 Nuclear Repulsion      ENuc            ....      9.5049547263 Eh

Convergence Acceleration:
 DIIS                   CNVDIIS         .... on
   Start iteration      DIISMaxIt       ....    12
   Startup error        DIISStart       ....  0.200000
   # of expansion vecs  DIISMaxEq       ....     5
   Bias factor          DIISBfac        ....   1.050
   Max. coefficient     DIISMaxC        ....  10.000
 Trust-Rad. Augm. Hess. CNVTRAH         .... auto
   Auto Start mean grad. ratio tolernc. ....  1.125000
   Auto Start start iteration           ....    20
   Auto Start num. interpolation iter.  ....    10
   Max. Number of Micro iterations      ....    16
   Max. Number of Macro iterations      .... Maxiter - #DIIS iter
   Number of Davidson start vectors     ....     2
   Converg. threshold I  (grad. norm)   ....   5.000e-05
   Converg. threshold II (energy diff.) ....   1.000e-06
   Grad. Scal. Fac. for Micro threshold ....   0.100
   Minimum threshold for Micro iter.    ....   0.010
   NR start threshold (gradient norm)   ....   0.001
   Initial trust radius                 ....   0.400
   Minimum AH scaling param. (alpha)    ....   1.000
   Maximum AH scaling param. (alpha)    .... 1000.000
   Orbital update algorithm             .... Taylor
   White noise on init. David. guess    .... on
   Maximum white noise                  ....   0.010
   Quad. conv. algorithm                .... NR
 SOSCF                  CNVSOSCF        .... off
 Level Shifting         CNVShift        .... on
   Level shift para.    LevelShift      ....    0.2500
   Turn off err/grad.   ShiftErr        ....    0.0010
 Zerner damping         CNVZerner       .... off
 Static damping         CNVDamp         .... on
   Fraction old density DampFac         ....    0.7000
   Max. Damping (<1)    DampMax         ....    0.9800
   Min. Damping (>=0)   DampMin         ....    0.0000
   Turn off err/grad.   DampErr         ....    0.1000
 Fernandez-Rico         CNVRico         .... off

SCF Procedure:
 Maximum # iterations   MaxIter         ....   125
 SCF integral mode      SCFMode         .... Direct
   Integral package                     .... SHARK and LIBINT hybrid scheme
 Reset frequency        DirectResetFreq ....    20
 Integral Threshold     Thresh          ....  1.000e-10 Eh
 Primitive CutOff       TCut            ....  1.000e-11 Eh

Convergence Tolerance:
 Convergence Check Mode ConvCheckMode   .... Total+1el-Energy
 Convergence forced     ConvForced      .... 0
 Energy Change          TolE            ....  1.000e-06 Eh
 1-El. energy change                    ....  1.000e-03 Eh
 DIIS Error             TolErr          ....  1.000e-06


Diagonalization of the overlap matrix:
Smallest eigenvalue                        ... 1.671e-03
Time for diagonalization                   ...    0.001 sec
Threshold for overlap eigenvalues          ... 1.000e-08
Number of eigenvalues below threshold      ... 0
Time for construction of square roots      ...    0.010 sec
Total time needed                          ...    0.011 sec

Time for model grid setup =    0.112 sec

------------------------------
INITIAL GUESS: MODEL POTENTIAL
------------------------------
Loading Hartree-Fock densities                     ... done
Calculating cut-offs                               ... done
Initializing the effective Hamiltonian             ... done
Setting up the integral package (SHARK)            ... done
Starting the Coulomb interaction                   ... done (   0.1 sec)
Reading the grid                                   ... done
Mapping shells                                     ... done
Starting the XC term evaluation                    ... done (   0.0 sec)
  promolecular density results
     # of electrons  =      8.998671860
     EX              =     -5.962042576
     EC              =     -0.259689506
     EX+EC           =     -6.221732082
Transforming the Hamiltonian                       ... done (   0.0 sec)
Diagonalizing the Hamiltonian                      ... done (   0.0 sec)
Back transforming the eigenvectors                 ... done (   0.0 sec)
Now organizing SCF variables                       ... done
                      ------------------
                      INITIAL GUESS DONE (   0.2 sec)
                      ------------------
-------------------
DFT GRID GENERATION
-------------------

General Integration Accuracy     IntAcc      ... 4.388
Radial Grid Type                 RadialGrid  ... OptM3 with GC (2021)
Angular Grid (max. ang.)         AngularGrid ... 4 (Lebedev-302)
Angular grid pruning method      GridPruning ... 4 (adaptive)
Weight generation scheme         WeightScheme... Becke
Basis function cutoff            BFCut       ... 1.0000e-10
Integration weight cutoff        WCut        ... 1.0000e-14
Angular grids for H and He will be reduced by one unit
Partially contracted basis set               ... off
Rotationally invariant grid construction     ... off

Total number of grid points                  ...    17051
Total number of batches                      ...      268
Average number of points per batch           ...       63
Average number of grid points per atom       ...     4263
Time for grid setup =    0.125 sec

--------------------
COSX GRID GENERATION
--------------------

GRIDX 1
-------
General Integration Accuracy     IntAcc      ... 3.816
Radial Grid Type                 RadialGrid  ... OptM3 with GC (2021)
Angular Grid (max. ang.)         AngularGrid ... 1 (Lebedev-50)
Angular grid pruning method      GridPruning ... 4 (adaptive)
Weight generation scheme         WeightScheme... Becke
Basis function cutoff            BFCut       ... 1.0000e-10
Integration weight cutoff        WCut        ... 1.0000e-14
Angular grids for H and He will be reduced by one unit
Partially contracted basis set               ... on
Rotationally invariant grid construction     ... off

Total number of grid points                  ...     2147
Total number of batches                      ...       35
Average number of points per batch           ...       61
Average number of grid points per atom       ...      537
UseSFitting                                  ... on

GRIDX 2
-------
General Integration Accuracy     IntAcc      ... 4.020
Radial Grid Type                 RadialGrid  ... OptM3 with GC (2021)
Angular Grid (max. ang.)         AngularGrid ... 2 (Lebedev-110)
Angular grid pruning method      GridPruning ... 4 (adaptive)
Weight generation scheme         WeightScheme... Becke
Basis function cutoff            BFCut       ... 1.0000e-10
Integration weight cutoff        WCut        ... 1.0000e-14
Angular grids for H and He will be reduced by one unit
Partially contracted basis set               ... on
Rotationally invariant grid construction     ... off

Total number of grid points                  ...     5050
Total number of batches                      ...       80
Average number of points per batch           ...       63
Average number of grid points per atom       ...     1262
UseSFitting                                  ... on

GRIDX 3
-------
General Integration Accuracy     IntAcc      ... 4.338
Radial Grid Type                 RadialGrid  ... OptM3 with GC (2021)
Angular Grid (max. ang.)         AngularGrid ... 3 (Lebedev-194)
Angular grid pruning method      GridPruning ... 4 (adaptive)
Weight generation scheme         WeightScheme... Becke
Basis function cutoff            BFCut       ... 1.0000e-10
Integration weight cutoff        WCut        ... 1.0000e-14
Angular grids for H and He will be reduced by one unit
Partially contracted basis set               ... on
Rotationally invariant grid construction     ... off

Total number of grid points                  ...    11733
Total number of batches                      ...      185
Average number of points per batch           ...       63
Average number of grid points per atom       ...     2933
UseSFitting                                  ... on

Time for X-Grid setup             =    0.206 sec

--------------
SCF ITERATIONS
--------------
ITER       Energy         Delta-E        Max-DP      RMS-DP      [F,P]     Damp
               ***  Starting incremental Fock matrix formation  ***
  0    -39.7864619620   0.000000000000 0.01480279  0.00048797  0.0873342 0.7000
  1    -39.8040947756  -0.017632813546 0.00926589  0.00036480  0.0460429 0.7000
                               ***Turning on DIIS***
  2    -39.8118723071  -0.007777531545 0.01601485  0.00063613  0.0187516 0.0000
  3    -39.8225197523  -0.010647445191 0.00846121  0.00027548  0.0276838 0.0000
  4    -39.8257986881  -0.003278935767 0.00297017  0.00007719  0.0056910 0.0000
  5    -39.8259314792  -0.000132791099 0.00106983  0.00003281  0.0019119 0.0000
  6    -39.8259491213  -0.000017642112 0.00089727  0.00002562  0.0008148 0.0000
               *** Restarting incremental Fock matrix formation ***
                                   *** Resetting DIIS ***
  7    -39.8259566780  -0.000007556760 0.00009650  0.00000312  0.0000885 0.0000
                 **** Energy Check signals convergence ****

               *****************************************************
               *                     SUCCESS                       *
               *           SCF CONVERGED AFTER   8 CYCLES          *
               *****************************************************

Old exchange energy                            =     -1.236865697 Eh
New exchange energy                            =     -1.236866242 Eh
Exchange energy change after final integration =     -0.000000546 Eh
Total energy after final integration           =    -39.825957304 Eh
Final COS-X integration done in                =     0.183 sec

----------------
TOTAL SCF ENERGY
----------------

Total Energy       :          -39.82595730 Eh           -1083.71939 eV

Components:
Nuclear Repulsion  :            9.50495473 Eh             258.64297 eV
Electronic Energy  :          -49.33091203 Eh           -1342.36236 eV
One Electron Energy:          -71.33851480 Eh           -1941.21968 eV
Two Electron Energy:           22.00760277 Eh             598.85732 eV
Max COSX asymmetry :            0.00000006 Eh               0.00000 eV

Virial components:
Potential Energy   :          -79.37226923 Eh           -2159.82925 eV
Kinetic Energy     :           39.54631193 Eh            1076.10986 eV
Virial Ratio       :            2.00707134


DFT components:
N(Alpha)           :        4.999999771449 electrons
N(Beta)            :        4.000000733152 electrons
N(Total)           :        9.000000504601 electrons
E(X)               :       -4.896934496338 Eh       
E(C)               :       -0.308742329956 Eh       
E(XC)              :       -5.205676826293 Eh       
DFET-embed. en.    :        0.000000000000 Eh       

---------------
SCF CONVERGENCE
---------------

  Last Energy change         ...   -8.0651e-08  Tolerance :   1.0000e-06
  Last MAX-Density change    ...    0.0000e+00  Tolerance :   1.0000e-05
  Last RMS-Density change    ...    0.0000e+00  Tolerance :   1.0000e-06
  Last DIIS Error            ...    6.2063e-05  Tolerance :   1.0000e-06

             **** THE GBW FILE WAS UPDATED (/home/rwth0701/scratch/cs681498/orcajob__30556508-mTgm/16013.gbw) ****
             **** DENSITY /home/rwth0701/scratch/cs681498/orcajob__30556508-mTgm/16013.scfp WAS UPDATED ****
             **** ENERGY FILE WAS UPDATED (/home/rwth0701/scratch/cs681498/orcajob__30556508-mTgm/16013.en.tmp) ****
----------------------
UHF SPIN CONTAMINATION
----------------------

Warning: in a DFT calculation there is little theoretical justification to 
         calculate <S**2> as in Hartree-Fock theory. We will do it anyways
         but you should keep in mind that the values have only limited relevance

Expectation value of <S**2>     :     0.753847
Ideal value S*(S+1) for S=0.5   :     0.750000
Deviation                       :     0.003847

             **** THE GBW FILE WAS UPDATED (/home/rwth0701/scratch/cs681498/orcajob__30556508-mTgm/16013.gbw) ****
             **** DENSITY /home/rwth0701/scratch/cs681498/orcajob__30556508-mTgm/16013.scfp WAS UPDATED ****
----------------
ORBITAL ENERGIES
----------------
                 SPIN UP ORBITALS
  NO   OCC          E(Eh)            E(eV) 
   0   1.0000     -10.189741      -277.2769 
   1   1.0000      -0.682926       -18.5834 
   2   1.0000      -0.425696       -11.5838 
   3   1.0000      -0.411025       -11.1846 
   4   1.0000      -0.234711        -6.3868 
   5   0.0000       0.000211         0.0057 
   6   0.0000       0.035478         0.9654 
   7   0.0000       0.037862         1.0303 
   8   0.0000       0.047403         1.2899 
   9   0.0000       0.081498         2.2177 
  10   0.0000       0.093276         2.5382 
  11   0.0000       0.095010         2.5854 
  12   0.0000       0.219294         5.9673 
  13   0.0000       0.227026         6.1777 
  14   0.0000       0.245828         6.6893 
  15   0.0000       0.275886         7.5072 
  16   0.0000       0.296469         8.0673 
  17   0.0000       0.307169         8.3585 
  18   0.0000       0.337873         9.1940 
  19   0.0000       0.547217        14.8905 
  20   0.0000       0.565374        15.3846 
  21   0.0000       0.737033        20.0557 
  22   0.0000       0.747452        20.3392 
  23   0.0000       0.770083        20.9550 
  24   0.0000       0.817156        22.2359 
  25   0.0000       0.884285        24.0626 
  26   0.0000       0.887455        24.1489 
  27   0.0000       0.942419        25.6445 
  28   0.0000       0.948457        25.8088 
  29   0.0000       1.054820        28.7031 
  30   0.0000       1.075101        29.2550 
  31   0.0000       1.106335        30.1049 
  32   0.0000       1.162033        31.6205 
  33   0.0000       1.162731        31.6395 
  34   0.0000       1.448388        39.4126 
  35   0.0000       1.460478        39.7416 
  36   0.0000       1.493204        40.6321 
  37   0.0000       1.711199        46.5641 
  38   0.0000       1.719948        46.8022 
  39   0.0000       1.740490        47.3612 
  40   0.0000       2.725246        74.1577 
  41   0.0000       2.728343        74.2420 
  42   0.0000       2.885896        78.5292 
  43   0.0000       2.897224        78.8375 
  44   0.0000       2.945132        80.1411 
  45   0.0000       2.952578        80.3437 
  46   0.0000       2.976621        80.9980 
  47   0.0000       3.149228        85.6949 
  48   0.0000       3.170966        86.2864 
  49   0.0000       3.250941        88.4626 
  50   0.0000       3.256805        88.6222 
  51   0.0000       3.674032        99.9755 
  52   0.0000       3.717234       101.1511 
  53   0.0000       3.781486       102.8995 
  54   0.0000       3.923115       106.7534 
  55   0.0000       3.934349       107.0591 
  56   0.0000       4.046689       110.1160 
  57   0.0000       4.097566       111.5004 
  58   0.0000       4.108825       111.8068 
  59   0.0000       4.117060       112.0309 
  60   0.0000       4.580575       124.6438 
  61   0.0000       5.007624       136.2644 
  62   0.0000       5.316846       144.6787 
  63   0.0000       5.374344       146.2433 
  64   0.0000       5.510695       149.9536 
  65   0.0000       6.059162       164.8782 
  66   0.0000       6.094334       165.8353 
  67   0.0000       7.686260       209.1538 
  68   0.0000      29.041776       790.2669 
  69   0.0000      37.089411      1009.2542 
  70   0.0000      37.192749      1012.0662 
  71   0.0000      37.214205      1012.6500 
  72   0.0000     133.492523      3632.5162 

                 SPIN DOWN ORBITALS
  NO   OCC          E(Eh)            E(eV) 
   0   1.0000     -10.175200      -276.8813 
   1   1.0000      -0.643320       -17.5056 
   2   1.0000      -0.416776       -11.3410 
   3   1.0000      -0.401345       -10.9212 
   4   0.0000      -0.077084        -2.0976 
   5   0.0000       0.003559         0.0968 
   6   0.0000       0.035173         0.9571 
   7   0.0000       0.037478         1.0198 
   8   0.0000       0.060721         1.6523 
   9   0.0000       0.084686         2.3044 
  10   0.0000       0.093481         2.5438 
  11   0.0000       0.098979         2.6934 
  12   0.0000       0.220471         5.9993 
  13   0.0000       0.228221         6.2102 
  14   0.0000       0.264303         7.1920 
  15   0.0000       0.303213         8.2508 
  16   0.0000       0.310441         8.4475 
  17   0.0000       0.311996         8.4899 
  18   0.0000       0.351160         9.5556 
  19   0.0000       0.573117        15.5953 
  20   0.0000       0.592729        16.1290 
  21   0.0000       0.738184        20.0870 
  22   0.0000       0.748353        20.3637 
  23   0.0000       0.797056        21.6890 
  24   0.0000       0.815907        22.2020 
  25   0.0000       0.887085        24.1388 
  26   0.0000       0.893195        24.3051 
  27   0.0000       0.959351        26.1053 
  28   0.0000       0.966681        26.3047 
  29   0.0000       1.086721        29.5712 
  30   0.0000       1.125217        30.6187 
  31   0.0000       1.129059        30.7232 
  32   0.0000       1.174189        31.9513 
  33   0.0000       1.175373        31.9835 
  34   0.0000       1.454986        39.5922 
  35   0.0000       1.485723        40.4286 
  36   0.0000       1.498000        40.7627 
  37   0.0000       1.719987        46.8032 
  38   0.0000       1.724197        46.9178 
  39   0.0000       1.748937        47.5910 
  40   0.0000       2.766005        75.2668 
  41   0.0000       2.769111        75.3513 
  42   0.0000       2.897764        78.8522 
  43   0.0000       2.930473        79.7422 
  44   0.0000       2.957671        80.4823 
  45   0.0000       2.987408        81.2915 
  46   0.0000       3.029867        82.4469 
  47   0.0000       3.201459        87.1161 
  48   0.0000       3.222966        87.7014 
  49   0.0000       3.309750        90.0629 
  50   0.0000       3.314630        90.1957 
  51   0.0000       3.673609        99.9640 
  52   0.0000       3.777387       102.7879 
  53   0.0000       3.780712       102.8784 
  54   0.0000       3.935006       107.0770 
  55   0.0000       3.935471       107.0896 
  56   0.0000       4.061209       110.5111 
  57   0.0000       4.099894       111.5638 
  58   0.0000       4.112643       111.9107 
  59   0.0000       4.143824       112.7592 
  60   0.0000       4.580508       124.6420 
  61   0.0000       5.029954       136.8720 
  62   0.0000       5.315686       144.6472 
  63   0.0000       5.373040       146.2079 
  64   0.0000       5.506976       149.8524 
  65   0.0000       6.060556       164.9161 
  66   0.0000       6.097544       165.9226 
  67   0.0000       7.721221       210.1051 
  68   0.0000      29.068633       790.9977 
  69   0.0000      37.077077      1008.9186 
  70   0.0000      37.180044      1011.7204 
  71   0.0000      37.202623      1012.3349 
  72   0.0000     133.500446      3632.7318 

                    ********************************
                    * MULLIKEN POPULATION ANALYSIS *
                    ********************************

--------------------------------------------
MULLIKEN ATOMIC CHARGES AND SPIN POPULATIONS
--------------------------------------------
   0 C :   -0.428628    1.107287
   1 H :    0.145834   -0.035919
   2 H :    0.138320   -0.034394
   3 H :    0.144474   -0.036975
Sum of atomic charges         :    0.0000000
Sum of atomic spin populations:    1.0000000

-----------------------------------------------------
MULLIKEN REDUCED ORBITAL CHARGES AND SPIN POPULATIONS
-----------------------------------------------------
CHARGE
  0 C s       :     3.343580  s :     3.343580
      pz      :     0.969475  p :     3.058027
      px      :     1.049829
      py      :     1.038723
      dz2     :     0.005655  d :     0.024127
      dxz     :     0.000122
      dyz     :     0.000193
      dx2y2   :     0.010280
      dxy     :     0.007878
      f0      :     0.000041  f :     0.002893
      f+1     :     0.000628
      f-1     :     0.000700
      f+2     :     0.000033
      f-2     :     0.000017
      f+3     :     0.000903
      f-3     :     0.000571
  1 H s       :     0.827749  s :     0.827749
      pz      :     0.010424  p :     0.026417
      px      :     0.006385
      py      :     0.009608
  2 H s       :     0.834746  s :     0.834746
      pz      :     0.010525  p :     0.026934
      px      :     0.009663
      py      :     0.006747
  3 H s       :     0.829764  s :     0.829764
      pz      :     0.010127  p :     0.025762
      px      :     0.007183
      py      :     0.008453

SPIN
  0 C s       :     0.067792  s :     0.067792
      pz      :     0.961084  p :     1.043809
      px      :     0.038111
      py      :     0.044614
      dz2     :    -0.004646  d :    -0.002977
      dxz     :     0.000000
      dyz     :    -0.000100
      dx2y2   :     0.001043
      dxy     :     0.000725
      f0      :    -0.000026  f :    -0.001336
      f+1     :    -0.000602
      f-1     :    -0.000622
      f+2     :    -0.000015
      f-2     :    -0.000012
      f+3     :    -0.000038
      f-3     :    -0.000021
  1 H s       :    -0.046025  s :    -0.046025
      pz      :     0.010350  p :     0.010107
      px      :    -0.000246
      py      :     0.000004
  2 H s       :    -0.044304  s :    -0.044304
      pz      :     0.010454  p :     0.009910
      px      :    -0.000164
      py      :    -0.000380
  3 H s       :    -0.046782  s :    -0.046782
      pz      :     0.010063  p :     0.009807
      px      :    -0.000235
      py      :    -0.000020


                     *******************************
                     * LOEWDIN POPULATION ANALYSIS *
                     *******************************

-------------------------------------------
LOEWDIN ATOMIC CHARGES AND SPIN POPULATIONS
-------------------------------------------
   0 C :   -0.166937    0.915858
   1 H :    0.059981    0.026747
   2 H :    0.040880    0.032869
   3 H :    0.066077    0.024526

----------------------------------------------------
LOEWDIN REDUCED ORBITAL CHARGES AND SPIN POPULATIONS
----------------------------------------------------
CHARGE
  0 C s       :     2.896239  s :     2.896239
      pz      :     0.880018  p :     3.172876
      px      :     1.154593
      py      :     1.138265
      dz2     :     0.006846  d :     0.090392
      dxz     :     0.000430
      dyz     :     0.000456
      dx2y2   :     0.045066
      dxy     :     0.037593
      f0      :     0.000268  f :     0.007431
      f+1     :     0.001825
      f-1     :     0.002019
      f+2     :     0.000084
      f-2     :     0.000045
      f+3     :     0.001921
      f-3     :     0.001268
  1 H s       :     0.801650  s :     0.801650
      pz      :     0.040032  p :     0.138369
      px      :     0.031533
      py      :     0.066804
  2 H s       :     0.808977  s :     0.808977
      pz      :     0.043981  p :     0.150143
      px      :     0.071483
      py      :     0.034679
  3 H s       :     0.799738  s :     0.799738
      pz      :     0.038274  p :     0.134186
      px      :     0.044362
      py      :     0.051550

SPIN
  0 C s       :     0.020269  s :     0.020269
      pz      :     0.870569  p :     0.904521
      px      :     0.014983
      py      :     0.018969
      dz2     :    -0.003991  d :    -0.007591
      dxz     :    -0.000023
      dyz     :    -0.000107
      dx2y2   :    -0.001901
      dxy     :    -0.001569
      f0      :     0.000137  f :    -0.001341
      f+1     :    -0.000558
      f-1     :    -0.000575
      f+2     :    -0.000017
      f-2     :    -0.000012
      f+3     :    -0.000194
      f-3     :    -0.000121
  1 H s       :    -0.018375  s :    -0.018375
      pz      :     0.039529  p :     0.045122
      px      :     0.000692
      py      :     0.004901
  2 H s       :    -0.016166  s :    -0.016166
      pz      :     0.043586  p :     0.049035
      px      :     0.004410
      py      :     0.001040
  3 H s       :    -0.018971  s :    -0.018971
      pz      :     0.037975  p :     0.043497
      px      :     0.001970
      py      :     0.003552


                      *****************************
                      * MAYER POPULATION ANALYSIS *
                      *****************************

  NA   - Mulliken gross atomic population
  ZA   - Total nuclear charge
  QA   - Mulliken gross atomic charge
  VA   - Mayer's total valence
  BVA  - Mayer's bonded valence
  FA   - Mayer's free valence

  ATOM       NA         ZA         QA         VA         BVA        FA
  0 C      6.4286     6.0000    -0.4286     3.8711     2.9241     0.9470
  1 H      0.8542     1.0000     0.1458     0.9840     0.9819     0.0021
  2 H      0.8617     1.0000     0.1383     0.9790     0.9771     0.0019
  3 H      0.8555     1.0000     0.1445     0.9838     0.9817     0.0022

  Mayer bond orders larger than 0.100000
B(  0-C ,  1-H ) :   0.9741 B(  0-C ,  2-H ) :   0.9759 B(  0-C ,  3-H ) :   0.9741 


-------
TIMINGS
-------

Total SCF time: 0 days 0 hours 0 min 4 sec 

Total time                  ....       4.516 sec
Sum of individual times     ....       3.979 sec  ( 88.1%)

Fock matrix formation       ....       3.295 sec  ( 73.0%)
  Split-RI-J                ....       0.408 sec  ( 12.4% of F)
  Chain of spheres X        ....       0.912 sec  ( 27.7% of F)
  XC integration            ....       1.321 sec  ( 40.1% of F)
    Basis function eval.    ....       0.115 sec  (  8.7% of XC)
    Density eval.           ....       0.110 sec  (  8.4% of XC)
    XC-Functional eval.     ....       0.095 sec  (  7.2% of XC)
    XC-Potential eval.      ....       0.162 sec  ( 12.3% of XC)
Diagonalization             ....       0.036 sec  (  0.8%)
Density matrix formation    ....       0.002 sec  (  0.0%)
Population analysis         ....       0.053 sec  (  1.2%)
Initial guess               ....       0.097 sec  (  2.2%)
Orbital Transformation      ....       0.000 sec  (  0.0%)
Orbital Orthonormalization  ....       0.000 sec  (  0.0%)
DIIS solution               ....       0.053 sec  (  1.2%)
Grid generation             ....       0.443 sec  (  9.8%)

Maximum memory used throughout the entire SCF-calculation: 59.0 MB

-------------------------   --------------------
FINAL SINGLE POINT ENERGY       -39.825957304366
-------------------------   --------------------

   --->>> g-tensor requested, so NeedSOC=true

                            ***************************************
                            *     ORCA property calculations      *
                            ***************************************

                                    ---------------------
                                    Active property flags
                                    ---------------------
   (+) Dipole Moment
   (+) g-tensor
   (+) Nuclear properties (Hyperfine,Quadrupole)
   (+) Spin-Orbit Integrals are needed


------------------------------------------------------------------------------
                       ORCA ELECTRIC PROPERTIES CALCULATION
------------------------------------------------------------------------------

Dipole Moment Calculation                       ... on
Quadrupole Moment Calculation                   ... off
Polarizability Calculation                      ... off
GBWName                                         ... /home/rwth0701/scratch/cs681498/orcajob__30556508-mTgm/16013.gbw
Electron density                                ... /home/rwth0701/scratch/cs681498/orcajob__30556508-mTgm/16013.scfp
The origin for moment calculation is the CENTER OF MASS  = (-137.893398, -184.828527 -54.213679)

-------------
DIPOLE MOMENT
-------------
                                X             Y             Z
Electronic contribution:      0.04834       0.02534       0.00857
Nuclear contribution   :     -0.06626      -0.02849      -0.01228
                        -----------------------------------------
Total Dipole Moment    :     -0.01792      -0.00315      -0.00371
                        -----------------------------------------
Magnitude (a.u.)       :      0.01857
Magnitude (Debye)      :      0.04721



--------------------
Rotational spectrum 
--------------------
 
Rotational constants in cm-1:    10.297865     8.358538     4.613769 
Rotational constants in MHz : 308722.215042 250582.654646 138317.306447 

 Dipole components along the rotational axes: 
x,y,z [a.u.] :     0.000855    -0.018345    -0.002772 
x,y,z [Debye]:     0.002172    -0.046630    -0.007046 

 


           ************************************************************
           *        Program running with 4 parallel MPI-processes     *
           *              working on a common directory               *
           ************************************************************
------------------------------------------------------------------------------
                         ORCA SPIN-ORBIT COUPLING CALCULATION
------------------------------------------------------------------------------

GBW file                                    ... /home/rwth0701/scratch/cs681498/orcajob__30556508-mTgm/16013.gbw
Input density                               ... /home/rwth0701/scratch/cs681498/orcajob__30556508-mTgm/16013.scfp
Output integrals                            ... /home/rwth0701/scratch/cs681498/orcajob__30556508-mTgm/16013
Operator type                               ... Mean-field/Effective potential
   One-Electron Terms                       ... 1
   Coulomb Contribution                     ... 3
   Exchange Contribution                    ... 3
   Correlation Contribution                 ... 0
   Maximum number of centers                ... 4
SHARK 2-electron RIJ-SOMF                   ... done (  0.1 sec)
SHARK 1-electron  MaxCenter=4               ... done (  0.0 sec)
SHARK 2-electron DoJ,X=0,1 MaxCenter=1      ... done (  0.1 sec)

Maximum memory used throughout the entire SOC-calculation: 11.3 MB
Total time for SOC:  2.173


           ************************************************************
           *        Program running with 4 parallel MPI-processes     *
           *              working on a common directory               *
           ************************************************************
------------------------------------------------------------------------------
                                ORCA EPR/NMR CALCULATION
------------------------------------------------------------------------------

GBWName                      ... /home/rwth0701/scratch/cs681498/orcajob__30556508-mTgm/16013.gbw
Electron density             ... /home/rwth0701/scratch/cs681498/orcajob__30556508-mTgm/16013.scfp
Spin density                 ... /home/rwth0701/scratch/cs681498/orcajob__30556508-mTgm/16013.scfr
Spin-orbit integrals         ... /home/rwth0701/scratch/cs681498/orcajob__30556508-mTgm/16013
Treatment of gauge           ... GIAO (approximations 1/2el = 0,0)
Details of the CP(SCF) procedure:
       Solver   = POPLE   
       MaxIter  =    64   
       Tolerance=    1.000e-03
       COSX Grid=     1   
       Op-0     =   0-  4 =>   5- 72
       Op-1     =   0-  3 =>   4- 72
Multiplicity                 ... 2
g-tensor                     ... 1
NMR chemical shifts          ... 0
NMR spin-spin couplings      ... 0
NMR spectrum                 ... 0
Number of nuclei for epr/nmr ... 4
   Nucleus:   1H 
       Hyperfine : Isotope=    1 I=   0.500 P= 533.551
       Quadrupole: Isotope=    2 I=   1.000 Q=   0.003
       Spin-Orbit: Zeff=   1.000
       Nuclear Spin-Spin: Gn=   0.000
       EPRNMR Input: 
       rho(0)=N f(grad)=N a(iso)=Y a(dip)=Y a(orb)=Y sigma(nmr)=N spin-spin(nmr)=all-N,DSO-N,PSO-N,FC-N,SD-N
   Nucleus:   2H 
       Hyperfine : Isotope=    1 I=   0.500 P= 533.551
       Quadrupole: Isotope=    2 I=   1.000 Q=   0.003
       Spin-Orbit: Zeff=   1.000
       Nuclear Spin-Spin: Gn=   0.000
       EPRNMR Input: 
       rho(0)=N f(grad)=N a(iso)=Y a(dip)=Y a(orb)=Y sigma(nmr)=N spin-spin(nmr)=all-N,DSO-N,PSO-N,FC-N,SD-N
   Nucleus:   3H 
       Hyperfine : Isotope=    1 I=   0.500 P= 533.551
       Quadrupole: Isotope=    2 I=   1.000 Q=   0.003
       Spin-Orbit: Zeff=   1.000
       Nuclear Spin-Spin: Gn=   0.000
       EPRNMR Input: 
       rho(0)=N f(grad)=N a(iso)=Y a(dip)=Y a(orb)=Y sigma(nmr)=N spin-spin(nmr)=all-N,DSO-N,PSO-N,FC-N,SD-N
   Nucleus:   0C 
       Hyperfine : Isotope=   13 I=   0.500 P= 134.190
       Quadrupole: Isotope=   13 I=   0.500 Q=   0.000
       Spin-Orbit: Zeff=   3.600
       Nuclear Spin-Spin: Gn=   0.000
       EPRNMR Input: 
       rho(0)=N f(grad)=N a(iso)=Y a(dip)=Y a(orb)=Y sigma(nmr)=N spin-spin(nmr)=all-N,DSO-N,PSO-N,FC-N,SD-N
Forming RHS of the CP-SCF equations         ... 
Calculating right hand sides for GIAO treatment        ... 
  Entering RightHandSide GIAO. ScalHFX=    0.2000 NeedHFX=1
     -> 1-electron GIAO integrals will be done analytically
     -> RIJCOSX used in SCF. Same chosen for GIAO calculation.
     Making grid for GIAO integrations   ...

GRID GIAO
---------

General Integration Accuracy     IntAcc      ... 4.388
Radial Grid Type                 RadialGrid  ... OptM3 with GC (2021)
Angular Grid (max. ang.)         AngularGrid ... 4 (Lebedev-302)
Angular grid pruning method      GridPruning ... 4 (adaptive)
Weight generation scheme         WeightScheme... Becke
Basis function cutoff            BFCut       ... 1.0000e-10
Integration weight cutoff        WCut        ... 1.0000e-14
Angular grids for H and He will be reduced by one unit
Partially contracted basis set               ... off
Rotationally invariant grid construction     ... off

Total number of grid points                  ...    17051
Total number of batches                      ...      268
Average number of points per batch           ...       63
Average number of grid points per atom       ...     4263

  One-electron GIAO integrals (SHARK)     ... done
  Calculating G(B)[P]                     ... (RI-J: SHARK-ok) (COSX-ok) (add-J+K:ok) => dG/dB done
  DFT XC-terms                            ... done
  Extracting occupied and virtual blocks  ... 
  Operator  0  NO=   5 NV=  68 
  Operator  1  NO=   4 NV=  69 
  Transforming and RHS contribution       ... done
  Adding eps_i * S(B)_ai terms            ... done
  Projecting overlap derivatives          ... done
  Building G[dS/dB_ij] (COSX)             ... done
  Transforming to MO basis                ... done
  Summing G[dS/dB_ij] into RHS contribs.  ... done

  GIAO profiling information: 
    Total GIAO time               ...       0.8 sec
       GIAO 1-electron integrals  ...       0.0 sec (  0.9%)
       GIAO G(dS/dB) terms        ...       0.1 sec ( 12.6%)
       GIAO RI-J                  ...       0.1 sec ( 13.4%)
       GIAO COSX                  ...       0.2 sec ( 18.7%)
       GIAO XC-terms              ...       0.3 sec ( 38.8%)

  GIAO right hand side done


------------------------------------------------------------------------------
                           ORCA CP-SCF CALCULATION
------------------------------------------------------------------------------

Input orbitals are from        ... /home/rwth0701/scratch/cs681498/orcajob__30556508-mTgm/16013.gbw
Input Perturbation             ... /home/rwth0701/scratch/cs681498/orcajob__30556508-mTgm/16013.pin.tmp
Wavefunction output            ... /home/rwth0701/scratch/cs681498/orcajob__30556508-mTgm/16013.pout.tmp
Perturbation mode              ... Imaginary perturbation
Solver                         ... POPLE
Max. number of iterations      ... 64
Convergence tolerance          ... 1.000e-03
Integral handling              ... Direct
DFT GridXC                     ... 1
COSX GridX                     ... 1
COSX IntAccX                   ... 3.067
COSX Algorithm                 ... Auto
Number of perturbations        ... 3
Number of operators            ... 2
Orbital ranges used for CP-SCF:
 Operator 0:  Orbitals   0...  4  to   5... 72
 Operator 1:  Orbitals   0...  3  to   4... 72
Variables per perturbation     ... 616
DFT calculation                         ... on
XC functional terms                     ... off
Hybrid DFT                              ... on
   Exchange mixing (SCF)                ...  0.200
   Exchange mixing (CP-SCF)             ...  0.200
   GGA exch. scaling(SCF)               ...  0.720
   GGA exch. scaling (CP-SCF)           ...  0.720
   GGA corr. scaling (SCF)              ...  0.810
   GGA corr. scaling (CP-SCF)           ...  0.810

CP-SCF GRID
-----------

General Integration Accuracy     IntAcc      ... 3.467
Radial Grid Type                 RadialGrid  ... OptM3 with GC (2021)
Angular Grid (max. ang.)         AngularGrid ... 1 (Lebedev-50)
Angular grid pruning method      GridPruning ... 4 (adaptive)
Weight generation scheme         WeightScheme... Becke
Basis function cutoff            BFCut       ... 1.0000e-10
Integration weight cutoff        WCut        ... 1.0000e-14
Angular grids for H and He will be reduced by one unit
Partially contracted basis set               ... off
Rotationally invariant grid construction     ... off

Total number of grid points                  ...     2342
Total number of batches                      ...       38
Average number of points per batch           ...       61
Average number of grid points per atom       ...      586

CP-SCF GRIDX
------------

General Integration Accuracy     IntAcc      ... 3.067
Radial Grid Type                 RadialGrid  ... OptM3 with GC (2021)
Angular Grid (max. ang.)         AngularGrid ... 1 (Lebedev-50)
Angular grid pruning method      GridPruning ... 4 (adaptive)
Weight generation scheme         WeightScheme... Becke
Basis function cutoff            BFCut       ... 1.0000e-10
Integration weight cutoff        WCut        ... 1.0000e-14
Angular grids for H and He will be reduced by one unit
Partially contracted basis set               ... on
Rotationally invariant grid construction     ... off

Total number of grid points                  ...     1074
Total number of batches                      ...       20
Average number of points per batch           ...       53
Average number of grid points per atom       ...      268

Memory available               ... 1014.6 MB
Memory needed per perturbation ...   0.4 MB
Perturbations treated per batch... 3
Number of batches              ... 1
     CP-SCF ITERATION   0:   1.0825e+01 (   0.1 sec   0/  3 done)
     CP-SCF ITERATION   1:   8.1677e-02 (   0.1 sec   0/  3 done)
     CP-SCF ITERATION   2:   3.7832e-03 (   0.1 sec   0/  3 done)
     CP-SCF ITERATION   3:   2.0458e-04 (   0.1 sec   3/  3 done)
                    *** THE CP-SCF HAS CONVERGED ***

Forming final perturbed densities           ... done
Transforming perturbed density to AO basis  ... done

Magnetic field perturbation calculated in  1.313 sec
GIAO: Diamagnetic terms      (analytic)     (SHARK) ... done
GIAO: 1el-Paramagnetic terms (analytic)     (SHARK) ... done

-------------------
ELECTRONIC G-MATRIX
-------------------

 The g-matrix: 
              2.0028747   -0.0000117    0.0000209
             -0.0000127    2.0029096    0.0000553
              0.0000173    0.0000504    2.0022452

 gel          2.0023193    2.0023193    2.0023193
 gRMC        -0.0001274   -0.0001274   -0.0001274
 gDSO(tot)    0.0000344    0.0000707    0.0000709
 gPSO(tot)    0.0000142    0.0006100    0.0006538
             ----------   ----------   ----------
 g(tot)       2.0022403    2.0028726    2.0029165 iso=  2.0026765
 Delta-g     -0.0000789    0.0005533    0.0005972 iso=  0.0003572
 Orientation: 
  X          -0.0315576   -0.9675041    0.2508783
  Y          -0.0792409   -0.2477914   -0.9655673
  Z           0.9963559   -0.0503508   -0.0688462

Notes:  (1) The g-matrix conforms to the "BgS" spin Hamiltonian convention. 
        (2) The principal values are square roots of the eigenvalues of g*gT.
        (3) Orientations are eigenvectors of g*gT written as column vectors.
        (4) Individual contributions are projections of the full matrices onto the eigenvectors of g*gT.
        (5) Tensor is right-handed.


-----------------------------------------
ELECTRIC AND MAGNETIC HYPERFINE STRUCTURE
-----------------------------------------

 -----------------------------------------------------------
 Nucleus   1H : A:ISTP=    1 I=  0.5 P=533.5514 MHz/au**3
                Q:ISTP=    2 I=  1.0 Q=  0.0029 barn     
 -----------------------------------------------------------
 Solving for nuclear perturbation:
Forming RHS of the CP-SCF equations         ... 
Calc. nucleus orbit integrals (SHARK)       ... done

------------------------------------------------------------------------------
                           ORCA CP-SCF CALCULATION
------------------------------------------------------------------------------

Input orbitals are from        ... /home/rwth0701/scratch/cs681498/orcajob__30556508-mTgm/16013.gbw
Input Perturbation             ... /home/rwth0701/scratch/cs681498/orcajob__30556508-mTgm/16013.pin.tmp
Wavefunction output            ... /home/rwth0701/scratch/cs681498/orcajob__30556508-mTgm/16013.pout.tmp
Perturbation mode              ... Imaginary perturbation
Solver                         ... POPLE
Max. number of iterations      ... 64
Convergence tolerance          ... 1.000e-03
Integral handling              ... Direct
DFT GridXC                     ... 1
COSX GridX                     ... 1
COSX IntAccX                   ... 3.067
COSX Algorithm                 ... Auto
Number of perturbations        ... 3
Number of operators            ... 2
Orbital ranges used for CP-SCF:
 Operator 0:  Orbitals   0...  4  to   5... 72
 Operator 1:  Orbitals   0...  3  to   4... 72
Variables per perturbation     ... 616
DFT calculation                         ... on
XC functional terms                     ... off
Hybrid DFT                              ... on
   Exchange mixing (SCF)                ...  0.200
   Exchange mixing (CP-SCF)             ...  0.200
   GGA exch. scaling(SCF)               ...  0.720
   GGA exch. scaling (CP-SCF)           ...  0.720
   GGA corr. scaling (SCF)              ...  0.810
   GGA corr. scaling (CP-SCF)           ...  0.810

CP-SCF GRID
-----------

General Integration Accuracy     IntAcc      ... 3.467
Radial Grid Type                 RadialGrid  ... OptM3 with GC (2021)
Angular Grid (max. ang.)         AngularGrid ... 1 (Lebedev-50)
Angular grid pruning method      GridPruning ... 4 (adaptive)
Weight generation scheme         WeightScheme... Becke
Basis function cutoff            BFCut       ... 1.0000e-10
Integration weight cutoff        WCut        ... 1.0000e-14
Angular grids for H and He will be reduced by one unit
Partially contracted basis set               ... off
Rotationally invariant grid construction     ... off

Total number of grid points                  ...     2342
Total number of batches                      ...       38
Average number of points per batch           ...       61
Average number of grid points per atom       ...      586

CP-SCF GRIDX
------------

General Integration Accuracy     IntAcc      ... 3.067
Radial Grid Type                 RadialGrid  ... OptM3 with GC (2021)
Angular Grid (max. ang.)         AngularGrid ... 1 (Lebedev-50)
Angular grid pruning method      GridPruning ... 4 (adaptive)
Weight generation scheme         WeightScheme... Becke
Basis function cutoff            BFCut       ... 1.0000e-10
Integration weight cutoff        WCut        ... 1.0000e-14
Angular grids for H and He will be reduced by one unit
Partially contracted basis set               ... on
Rotationally invariant grid construction     ... off

Total number of grid points                  ...     1074
Total number of batches                      ...       20
Average number of points per batch           ...       53
Average number of grid points per atom       ...      268

Memory available               ... 968.0 MB
Memory needed per perturbation ...   0.4 MB
Perturbations treated per batch... 3
Number of batches              ... 1
     CP-SCF ITERATION   0:   6.4424e-02 (   0.1 sec   0/  3 done)
     CP-SCF ITERATION   1:   2.4190e-03 (   0.1 sec   1/  3 done)
     CP-SCF ITERATION   2:   1.7766e-04 (   0.1 sec   3/  3 done)
                    *** THE CP-SCF HAS CONVERGED ***

Forming final perturbed densities           ... done
Transforming perturbed density to AO basis  ... done

 Raw HFC matrix (all values in MHz): 
 -----------------------------------
              -101.3930              17.0645               0.1537
                17.0649             -33.9198               3.3209
                 0.1537               3.3209             -67.2304

 A(FC)         -67.5281             -67.5281             -67.5281
 A(SD)          37.9497               0.0252             -37.9749
 A(ORB+DIA)      0.0121              -0.0006               0.0296    A(PC) =   0.0137
 A(ORB)          0.0075               0.0005               0.0283    A(PC) =   0.0121
 A(DIA)          0.0047              -0.0011               0.0013    A(PC) =   0.0016
             ----------           ----------           ----------
 A(Tot)        -29.5663             -67.5035            -105.4734    A(iso)=  -67.5144
 Orientation: 
  X           0.2304558           -0.0358970            0.9724204
  Y           0.9692395           -0.0802608           -0.2326648
  Z           0.0863993            0.9961273            0.0162962

Notes:  (1) The A matrix conforms to the "SAI" spin Hamiltonian convention.
        (2) Tensor is right-handed.

 -----------------------------------------------------------
 Nucleus   2H : A:ISTP=    1 I=  0.5 P=533.5514 MHz/au**3
                Q:ISTP=    2 I=  1.0 Q=  0.0029 barn     
 -----------------------------------------------------------
 Solving for nuclear perturbation:
Forming RHS of the CP-SCF equations         ... 
Calc. nucleus orbit integrals (SHARK)       ... done

------------------------------------------------------------------------------
                           ORCA CP-SCF CALCULATION
------------------------------------------------------------------------------

Input orbitals are from        ... /home/rwth0701/scratch/cs681498/orcajob__30556508-mTgm/16013.gbw
Input Perturbation             ... /home/rwth0701/scratch/cs681498/orcajob__30556508-mTgm/16013.pin.tmp
Wavefunction output            ... /home/rwth0701/scratch/cs681498/orcajob__30556508-mTgm/16013.pout.tmp
Perturbation mode              ... Imaginary perturbation
Solver                         ... POPLE
Max. number of iterations      ... 64
Convergence tolerance          ... 1.000e-03
Integral handling              ... Direct
DFT GridXC                     ... 1
COSX GridX                     ... 1
COSX IntAccX                   ... 3.067
COSX Algorithm                 ... Auto
Number of perturbations        ... 3
Number of operators            ... 2
Orbital ranges used for CP-SCF:
 Operator 0:  Orbitals   0...  4  to   5... 72
 Operator 1:  Orbitals   0...  3  to   4... 72
Variables per perturbation     ... 616
DFT calculation                         ... on
XC functional terms                     ... off
Hybrid DFT                              ... on
   Exchange mixing (SCF)                ...  0.200
   Exchange mixing (CP-SCF)             ...  0.200
   GGA exch. scaling(SCF)               ...  0.720
   GGA exch. scaling (CP-SCF)           ...  0.720
   GGA corr. scaling (SCF)              ...  0.810
   GGA corr. scaling (CP-SCF)           ...  0.810

CP-SCF GRID
-----------

General Integration Accuracy     IntAcc      ... 3.467
Radial Grid Type                 RadialGrid  ... OptM3 with GC (2021)
Angular Grid (max. ang.)         AngularGrid ... 1 (Lebedev-50)
Angular grid pruning method      GridPruning ... 4 (adaptive)
Weight generation scheme         WeightScheme... Becke
Basis function cutoff            BFCut       ... 1.0000e-10
Integration weight cutoff        WCut        ... 1.0000e-14
Angular grids for H and He will be reduced by one unit
Partially contracted basis set               ... off
Rotationally invariant grid construction     ... off

Total number of grid points                  ...     2342
Total number of batches                      ...       38
Average number of points per batch           ...       61
Average number of grid points per atom       ...      586

CP-SCF GRIDX
------------

General Integration Accuracy     IntAcc      ... 3.067
Radial Grid Type                 RadialGrid  ... OptM3 with GC (2021)
Angular Grid (max. ang.)         AngularGrid ... 1 (Lebedev-50)
Angular grid pruning method      GridPruning ... 4 (adaptive)
Weight generation scheme         WeightScheme... Becke
Basis function cutoff            BFCut       ... 1.0000e-10
Integration weight cutoff        WCut        ... 1.0000e-14
Angular grids for H and He will be reduced by one unit
Partially contracted basis set               ... on
Rotationally invariant grid construction     ... off

Total number of grid points                  ...     1074
Total number of batches                      ...       20
Average number of points per batch           ...       53
Average number of grid points per atom       ...      268

Memory available               ... 967.8 MB
Memory needed per perturbation ...   0.4 MB
Perturbations treated per batch... 3
Number of batches              ... 1
     CP-SCF ITERATION   0:   6.6161e-02 (   0.1 sec   0/  3 done)
     CP-SCF ITERATION   1:   2.2275e-03 (   0.1 sec   1/  3 done)
     CP-SCF ITERATION   2:   1.5945e-04 (   0.1 sec   3/  3 done)
                    *** THE CP-SCF HAS CONVERGED ***

Forming final perturbed densities           ... done
Transforming perturbed density to AO basis  ... done

 Raw HFC matrix (all values in MHz): 
 -----------------------------------
               -28.0348              17.2815               2.8143
                17.2813             -99.3441              -2.5242
                 2.8144              -2.5242             -61.3787

 A(FC)         -62.9335             -62.9335             -62.9335
 A(SD)          38.9818               1.6550             -40.6368
 A(ORB+DIA)      0.0113              -0.0006               0.0320    A(PC) =   0.0142
 A(ORB)          0.0062               0.0005               0.0306    A(PC) =   0.0124
 A(DIA)          0.0051              -0.0012               0.0015    A(PC) =   0.0018
             ----------           ----------           ----------
 A(Tot)        -23.9403             -61.2791            -103.5382    A(iso)=  -62.9192
 Orientation: 
  X           0.9734951            0.0404246           -0.2251068
  Y           0.2211605            0.0843746            0.9715807
  Z           0.0582691           -0.9956138            0.0731979

Notes:  (1) The A matrix conforms to the "SAI" spin Hamiltonian convention.
        (2) Tensor is right-handed.

 -----------------------------------------------------------
 Nucleus   3H : A:ISTP=    1 I=  0.5 P=533.5514 MHz/au**3
                Q:ISTP=    2 I=  1.0 Q=  0.0029 barn     
 -----------------------------------------------------------
 Solving for nuclear perturbation:
Forming RHS of the CP-SCF equations         ... 
Calc. nucleus orbit integrals (SHARK)       ... done

------------------------------------------------------------------------------
                           ORCA CP-SCF CALCULATION
------------------------------------------------------------------------------

Input orbitals are from        ... /home/rwth0701/scratch/cs681498/orcajob__30556508-mTgm/16013.gbw
Input Perturbation             ... /home/rwth0701/scratch/cs681498/orcajob__30556508-mTgm/16013.pin.tmp
Wavefunction output            ... /home/rwth0701/scratch/cs681498/orcajob__30556508-mTgm/16013.pout.tmp
Perturbation mode              ... Imaginary perturbation
Solver                         ... POPLE
Max. number of iterations      ... 64
Convergence tolerance          ... 1.000e-03
Integral handling              ... Direct
DFT GridXC                     ... 1
COSX GridX                     ... 1
COSX IntAccX                   ... 3.067
COSX Algorithm                 ... Auto
Number of perturbations        ... 3
Number of operators            ... 2
Orbital ranges used for CP-SCF:
 Operator 0:  Orbitals   0...  4  to   5... 72
 Operator 1:  Orbitals   0...  3  to   4... 72
Variables per perturbation     ... 616
DFT calculation                         ... on
XC functional terms                     ... off
Hybrid DFT                              ... on
   Exchange mixing (SCF)                ...  0.200
   Exchange mixing (CP-SCF)             ...  0.200
   GGA exch. scaling(SCF)               ...  0.720
   GGA exch. scaling (CP-SCF)           ...  0.720
   GGA corr. scaling (SCF)              ...  0.810
   GGA corr. scaling (CP-SCF)           ...  0.810

CP-SCF GRID
-----------

General Integration Accuracy     IntAcc      ... 3.467
Radial Grid Type                 RadialGrid  ... OptM3 with GC (2021)
Angular Grid (max. ang.)         AngularGrid ... 1 (Lebedev-50)
Angular grid pruning method      GridPruning ... 4 (adaptive)
Weight generation scheme         WeightScheme... Becke
Basis function cutoff            BFCut       ... 1.0000e-10
Integration weight cutoff        WCut        ... 1.0000e-14
Angular grids for H and He will be reduced by one unit
Partially contracted basis set               ... off
Rotationally invariant grid construction     ... off

Total number of grid points                  ...     2342
Total number of batches                      ...       38
Average number of points per batch           ...       61
Average number of grid points per atom       ...      586

CP-SCF GRIDX
------------

General Integration Accuracy     IntAcc      ... 3.067
Radial Grid Type                 RadialGrid  ... OptM3 with GC (2021)
Angular Grid (max. ang.)         AngularGrid ... 1 (Lebedev-50)
Angular grid pruning method      GridPruning ... 4 (adaptive)
Weight generation scheme         WeightScheme... Becke
Basis function cutoff            BFCut       ... 1.0000e-10
Integration weight cutoff        WCut        ... 1.0000e-14
Angular grids for H and He will be reduced by one unit
Partially contracted basis set               ... on
Rotationally invariant grid construction     ... off

Total number of grid points                  ...     1074
Total number of batches                      ...       20
Average number of points per batch           ...       53
Average number of grid points per atom       ...      268

Memory available               ... 967.7 MB
Memory needed per perturbation ...   0.4 MB
Perturbations treated per batch... 3
Number of batches              ... 1
     CP-SCF ITERATION   0:   6.0388e-02 (   0.1 sec   0/  3 done)
     CP-SCF ITERATION   1:   2.3687e-03 (   0.1 sec   1/  3 done)
     CP-SCF ITERATION   2:   2.1772e-04 (   0.1 sec   3/  3 done)
                    *** THE CP-SCF HAS CONVERGED ***

Forming final perturbed densities           ... done
Transforming perturbed density to AO basis  ... done

 Raw HFC matrix (all values in MHz): 
 -----------------------------------
               -75.9390             -36.1745              -3.3841
               -36.1747             -59.4229              -0.4627
                -3.3841              -0.4626             -68.7512

 A(FC)         -68.0513             -68.0513             -68.0513
 A(SD)          37.5433              -0.5417             -37.0016
 A(ORB+DIA)      0.0124              -0.0007               0.0290    A(PC) =   0.0136
 A(ORB)          0.0079               0.0004               0.0278    A(PC) =   0.0120
 A(DIA)          0.0045              -0.0011               0.0012    A(PC) =   0.0016
             ----------           ----------           ----------
 A(Tot)        -30.4956             -68.5936            -105.0238    A(iso)=  -68.0377
 Orientation: 
  X           0.6242338            0.0345689            0.7804724
  Y          -0.7798947            0.0861256            0.6199570
  Z          -0.0457875           -0.9956844            0.0807226

Notes:  (1) The A matrix conforms to the "SAI" spin Hamiltonian convention.
        (2) Tensor is right-handed.

 -----------------------------------------------------------
 Nucleus   0C : A:ISTP=   13 I=  0.5 P=134.1903 MHz/au**3
                Q:ISTP=   13 I=  0.5 Q=  0.0000 barn     
 -----------------------------------------------------------
 Solving for nuclear perturbation:
Forming RHS of the CP-SCF equations         ... 
Calc. nucleus orbit integrals (SHARK)       ... done

------------------------------------------------------------------------------
                           ORCA CP-SCF CALCULATION
------------------------------------------------------------------------------

Input orbitals are from        ... /home/rwth0701/scratch/cs681498/orcajob__30556508-mTgm/16013.gbw
Input Perturbation             ... /home/rwth0701/scratch/cs681498/orcajob__30556508-mTgm/16013.pin.tmp
Wavefunction output            ... /home/rwth0701/scratch/cs681498/orcajob__30556508-mTgm/16013.pout.tmp
Perturbation mode              ... Imaginary perturbation
Solver                         ... POPLE
Max. number of iterations      ... 64
Convergence tolerance          ... 1.000e-03
Integral handling              ... Direct
DFT GridXC                     ... 1
COSX GridX                     ... 1
COSX IntAccX                   ... 3.067
COSX Algorithm                 ... Auto
Number of perturbations        ... 3
Number of operators            ... 2
Orbital ranges used for CP-SCF:
 Operator 0:  Orbitals   0...  4  to   5... 72
 Operator 1:  Orbitals   0...  3  to   4... 72
Variables per perturbation     ... 616
DFT calculation                         ... on
XC functional terms                     ... off
Hybrid DFT                              ... on
   Exchange mixing (SCF)                ...  0.200
   Exchange mixing (CP-SCF)             ...  0.200
   GGA exch. scaling(SCF)               ...  0.720
   GGA exch. scaling (CP-SCF)           ...  0.720
   GGA corr. scaling (SCF)              ...  0.810
   GGA corr. scaling (CP-SCF)           ...  0.810

CP-SCF GRID
-----------

General Integration Accuracy     IntAcc      ... 3.467
Radial Grid Type                 RadialGrid  ... OptM3 with GC (2021)
Angular Grid (max. ang.)         AngularGrid ... 1 (Lebedev-50)
Angular grid pruning method      GridPruning ... 4 (adaptive)
Weight generation scheme         WeightScheme... Becke
Basis function cutoff            BFCut       ... 1.0000e-10
Integration weight cutoff        WCut        ... 1.0000e-14
Angular grids for H and He will be reduced by one unit
Partially contracted basis set               ... off
Rotationally invariant grid construction     ... off

Total number of grid points                  ...     2342
Total number of batches                      ...       38
Average number of points per batch           ...       61
Average number of grid points per atom       ...      586

CP-SCF GRIDX
------------

General Integration Accuracy     IntAcc      ... 3.067
Radial Grid Type                 RadialGrid  ... OptM3 with GC (2021)
Angular Grid (max. ang.)         AngularGrid ... 1 (Lebedev-50)
Angular grid pruning method      GridPruning ... 4 (adaptive)
Weight generation scheme         WeightScheme... Becke
Basis function cutoff            BFCut       ... 1.0000e-10
Integration weight cutoff        WCut        ... 1.0000e-14
Angular grids for H and He will be reduced by one unit
Partially contracted basis set               ... on
Rotationally invariant grid construction     ... off

Total number of grid points                  ...     1074
Total number of batches                      ...       20
Average number of points per batch           ...       53
Average number of grid points per atom       ...      268

Memory available               ... 967.6 MB
Memory needed per perturbation ...   0.4 MB
Perturbations treated per batch... 3
Number of batches              ... 1
     CP-SCF ITERATION   0:   1.1446e+00 (   0.1 sec   0/  3 done)
     CP-SCF ITERATION   1:   4.2307e-02 (   0.1 sec   0/  3 done)
     CP-SCF ITERATION   2:   3.0432e-03 (   0.1 sec   0/  3 done)
     CP-SCF ITERATION   3:   1.2905e-04 (   0.1 sec   3/  3 done)
                    *** THE CP-SCF HAS CONVERGED ***

Forming final perturbed densities           ... done
Transforming perturbed density to AO basis  ... done

 Raw HFC matrix (all values in MHz): 
 -----------------------------------
                 6.8763               0.7278              -8.8399
                 0.7278               7.9606             -20.1276
                -8.8399             -20.1276             246.1946

 A(FC)          87.1294              87.1294              87.1294
 A(SD)         -80.6908             -80.4019             161.0927
 A(ORB+DIA)     -0.1672              -0.1765              -0.0129    A(PC) =  -0.1189
 A(ORB)         -0.1676              -0.1769              -0.0128    A(PC) =  -0.1191
 A(DIA)          0.0004               0.0004              -0.0001    A(PC) =   0.0002
             ----------           ----------           ----------
 A(Tot)          6.2714               6.5510             248.2092    A(iso)=   87.0105
 Orientation: 
  X           0.0491251            0.9981171            0.0367285
  Y           0.9951440           -0.0520528            0.0835401
  Z           0.0852946            0.0324462           -0.9958273

Notes:  (1) The A matrix conforms to the "SAI" spin Hamiltonian convention.
        (2) Tensor is right-handed.


--------------------------------------------------------------------------------
----------------------------------------------------------------------------
                           ORCA EULER ANGLE PROGRAM
----------------------------------------------------------------------------

Only g-tensor available        -->  using g-tensor as reference tensor

Reference tensor               ...  g

g-tensor ordering              ...  |g_min> --> |gx>
                                    |g_mid> --> |gy>
                                    |g_max> --> |gz>

A- and EFG-tensor ordering     ...  the axes |Ax>, |Qx>, |Ay>, etc. are assigned
                                    such that the Euler rotation is minimal. You
                                    can find the respective eigenvalues as Ax,
                                    EFGx, Ay, etc. in the tables below.
                                    The relation of |Ax>, |Ay>,  etc. to Amin, Amid, etc.
                                    (as printed in the ORCA EPR/NMR CALCULATION Output)
                                    is obtained in the detailed printout.

Euler rotation around          ...  z - y - z
   First rotation              -->  by alpha around z
   Second rotation             -->  by beta around y'
   Third rotation              -->  by gamma around z''
   Positive / Negative angle   -->  clockwise / counterclockwise rotation

Plot EFG-tensors                    (-)
Plot HFC-tensors                    (-)
Detailed Printout                   (-)

-------------------------------------------------------------------------
          Euler rotation of hyperfine tensor to g-tensor
-------------------------------------------------------------------------

-------------------------------------------------------------------
 Atom  |   Alpha    Beta    Gamma   |   Ax       Ay       Az 
       |          [degrees]         |           [MHz]         
-------------------------------------------------------------------
  1H      -90.0     27.9     89.8     -67.50  -105.47   -29.57
  2H      -84.0      1.5     83.5     -61.28   -23.94  -103.54
  3H       89.2     24.1    -89.5     -68.59  -105.02   -30.50
  0C      -89.4     17.4     89.1     248.21     6.55     6.27
-------------------------------------------------------------------


Maximum memory used throughout the entire EPRNMR-calculation: 67.6 MB

Timings for individual modules:

Sum of individual times         ...       17.495 sec (=   0.292 min)
GTO integral calculation        ...        2.957 sec (=   0.049 min)  16.9 %
Spin-Orbit-Coupling Matrices    ...        2.162 sec (=   0.036 min)  12.4 %
SCF iterations                  ...        6.219 sec (=   0.104 min)  35.6 %
EPR/NMR calculation             ...        6.156 sec (=   0.103 min)  35.2 %
                             ****ORCA TERMINATED NORMALLY****
TOTAL RUN TIME: 0 days 0 hours 0 minutes 20 seconds 71 msec
