4
# ORCA AIMD Position Step 0, t=0.00 fs, E_Pot=-39.82314971 Hartree, Unit is Angstrom
 C     12.6022894301     -0.6266926546     -7.1846322451
 H     12.3092559322     -1.4837953326     -6.4853588307
 H     13.1769622509      0.2068786471     -6.7587485437
 H     12.0584043831     -0.4595369654     -8.0963961825
4
# ORCA AIMD Position Step 1, t=0.50 fs, E_Pot=-39.82384845 Hartree, Unit is Angstrom
 C     12.5916476366     -0.6259871429     -7.1829938020
 H     12.2890971735     -1.4760784500     -6.5161335339
 H     13.2047637859      0.1939715701     -6.7430413071
 H     12.0614034002     -0.4550522827     -8.0829671589
4
# ORCA AIMD Position Step 2, t=1.00 fs, E_Pot=-39.82353938 Hartree, Unit is Angstrom
 C     12.5811257807     -0.6253202957     -7.1809498943
 H     12.2699712219     -1.4661357983     -6.5488064262
 H     13.2312249013      0.1790949323     -6.7285146952
 H     12.0635797165     -0.4503867089     -8.0713329611
4
# ORCA AIMD Position Step 3, t=1.50 fs, E_Pot=-39.82232102 Hartree, Unit is Angstrom
 C     12.5708574937     -0.6245718497     -7.1784640959
 H     12.2515205335     -1.4552723203     -6.5821400612
 H     13.2556515769      0.1616378772     -6.7156351543
 H     12.0643879351     -0.4450553815     -8.0626954518
4
# ORCA AIMD Position Step 4, t=2.00 fs, E_Pot=-39.82056136 Hartree, Unit is Angstrom
 C     12.5609650734     -0.6236101892     -7.1755431318
 H     12.2332474811     -1.4450898742     -6.6147528443
 H     13.2774454448      0.1411918520     -6.7047649058
 H     12.0634617230     -0.4386139831     -8.0579909520
4
# ORCA AIMD Position Step 5, t=2.50 fs, E_Pot=-39.81885039 Hartree, Unit is Angstrom
 C     12.5515464561     -0.6222991388     -7.1722410996
 H     12.2145451461     -1.4373582007     -6.6452487288
 H     13.2961502020      0.1175500863     -6.6961496934
 H     12.0606920100     -0.4307065416     -8.0577231350
4
# ORCA AIMD Position Step 6, t=3.00 fs, E_Pot=-39.81785639 Hartree, Unit is Angstrom
 C     12.5426637803     -0.6205141001     -7.1686516405
 H     12.1947839833     -1.4337690456     -6.6724113804
 H     13.3114682567      0.0906937405     -6.6899152371
 H     12.0562599547     -0.4211054187     -8.0618658393
4
# ORCA AIMD Position Step 7, t=3.50 fs, E_Pot=-39.81805344 Hartree, Unit is Angstrom
 C     12.5343323370     -0.6181681857     -7.1648888447
 H     12.1734528787     -1.4355950565     -6.6954210009
 H     13.3232808328      0.0607793947     -6.6860665781
 H     12.0506073997     -0.4097285897     -8.0698741924
4
# ORCA AIMD Position Step 8, t=4.00 fs, E_Pot=-39.81942286 Hartree, Unit is Angstrom
 C     12.5265125632     -0.6152393146     -7.1610656169
 H     12.1503128788     -1.4433669490     -6.7140066296
 H     13.3316689232      0.0281314215     -6.6844844359
 H     12.0443577073     -0.3966320152     -8.0807935538
4
# ORCA AIMD Position Step 9, t=4.50 fs, E_Pot=-39.82137546 Hartree, Unit is Angstrom
 C     12.5191084676     -0.6117848347     -7.1572770346
 H     12.1254983329     -1.4567096841     -6.7284624616
 H     13.3369380560     -0.0067773330     -6.6849307138
 H     12.0382088814     -0.3819799084     -8.0934357536
4
# ORCA AIMD Position Step 10, t=5.00 fs, E_Pot=-39.82303196 Hartree, Unit is Angstrom
 C     12.5119747470     -0.6079350076     -7.1535994059
 H     12.0995042919     -1.4744407097     -6.7395057359
 H     13.3396327096     -0.0433393540     -6.6870436581
 H     12.0328473188     -0.3660102512     -8.1065370166
4
# ORCA AIMD Position Step 11, t=5.50 fs, E_Pot=-39.82367735 Hartree, Unit is Angstrom
 C     12.5049319546     -0.6038682025     -7.1500956123
 H     12.0730728534     -1.4948641697     -6.7480618811
 H     13.3405398062     -0.0808493331     -6.6903486081
 H     12.0288775190     -0.3489993162     -8.1188982166
4
# ORCA AIMD Position Step 12, t=6.00 fs, E_Pot=-39.82307592 Hartree, Unit is Angstrom
 C     12.4977853762     -0.5997794418     -7.1468220291
 H     12.0470381113     -1.5161189129     -6.7550667464
 H     13.3406575257     -0.1185598755     -6.6942832063
 H     12.0267834565     -0.3312329971     -8.1294747737
4
# ORCA AIMD Position Step 13, t=6.50 fs, E_Pot=-39.82151118 Hartree, Unit is Angstrom
 C     12.4903445177     -0.5958524866     -7.1438306665
 H     12.0221915816     -1.5364552807     -6.7613408634
 H     13.3411136827     -0.1557586066     -6.6982471056
 H     12.0269122972     -0.3129853104     -8.1374269798
4
# ORCA AIMD Position Step 14, t=7.00 fs, E_Pot=-39.81961115 Hartree, Unit is Angstrom
 C     12.4824422343     -0.5922401656     -7.1411652330
 H     11.9991971275     -1.5543951368     -6.7675375532
 H     13.3430245161     -0.1918574290     -6.7016781455
 H     12.0294723011     -0.2945026981     -8.1421426899
4
# ORCA AIMD Position Step 15, t=7.50 fs, E_Pot=-39.81807351 Hartree, Unit is Angstrom
 C     12.4739531625     -0.5890535962     -7.1388530440
 H     11.9785530703     -1.5687920774     -6.7741403194
 H     13.3473072316     -0.2264723804     -6.7041444608
 H     12.0345379187     -0.2759918374     -8.1432445268
4
# ORCA AIMD Position Step 16, t=8.00 fs, E_Pot=-39.81739780 Hartree, Unit is Angstrom
 C     12.4648093799     -0.5863596751     -7.1368963438
 H     11.9605857712     -1.5788305189     -6.7814832930
 H     13.3544912667     -0.2594653426     -6.7054270264
 H     12.0420577647     -0.2576086954     -8.1405905125
4
# ORCA AIMD Position Step 17, t=8.50 fs, E_Pot=-39.81772516 Hartree, Unit is Angstrom
 C     12.4550094240     -0.5841856325     -7.1352667476
 H     11.9454581666     -1.5839993152     -6.7897767697
 H     13.3645929500     -0.2909277306     -6.7055616155
 H     12.0518638756     -0.2394472229     -8.1342727822
4
# ORCA AIMD Position Step 18, t=9.00 fs, E_Pot=-39.81884458 Hartree, Unit is Angstrom
 C     12.4446173709     -0.5825283081     -7.1339051494
 H     11.9331813945     -1.5840637553     -6.7991286271
 H     13.3771041127     -0.3211104997     -6.7048214204
 H     12.0636829400     -0.2215272874     -8.1246144239
4
# ORCA AIMD Position Step 19, t=9.50 fs, E_Pot=-39.82033327 Hartree, Unit is Angstrom
 C     12.4337520968     -0.5813646389     -7.1327271189
 H     11.9236233099     -1.5790473320     -6.8095587840
 H     13.3910967004     -0.3503292794     -6.7036477633
 H     12.0771519072     -0.2037832174     -8.1121597204
4
# ORCA AIMD Position Step 20, t=10.00 fs, E_Pot=-39.82173080 Hartree, Unit is Angstrom
 C     12.4225719360     -0.5806595724     -7.1316314158
 H     11.9165069329     -1.5692337057     -6.8210057366
 H     13.4053894097     -0.3788773984     -6.7025564754
 H     12.0918363939     -0.1860546220     -8.0976595899
4
# ORCA AIMD Position Step 21, t=10.50 fs, E_Pot=-39.82266376 Hartree, Unit is Angstrom
 C     12.4112546287     -0.5803691177     -7.1305123249
 H     11.9114085218     -1.5551758938     -6.8333282614
 H     13.4187534970     -0.4069761918     -6.7020490329
 H     12.1072661548     -0.1680902854     -8.0820117435
4
# ORCA AIMD Position Step 22, t=11.00 fs, E_Pot=-39.82289780 Hartree, Unit is Angstrom
 C     12.3999854772     -0.5804380979     -7.1292700155
 H     11.9077374769     -1.5377334137     -6.8463019945
 H     13.4300447628     -0.4347513120     -6.7025483282
 H     12.1229643282     -0.1495612475     -8.0662050917
4
# ORCA AIMD Position Step 23, t=11.50 fs, E_Pot=-39.82235129 Hartree, Unit is Angstrom
 C     12.3889460271     -0.5807942789     -7.1278229391
 H     11.9047255755     -1.5180942169     -6.8596205754
 H     13.4383051313     -0.4622407737     -6.7043646628
 H     12.1384910591     -0.1301008366     -8.0512053235
4
# ORCA AIMD Position Step 24, t=12.00 fs, E_Pot=-39.82110515 Hartree, Unit is Angstrom
 C     12.3783071561     -0.5813416103     -7.1261187797
 H     11.9014246391     -1.4977751573     -6.8729057764
 H     13.4428099266     -0.4894143317     -6.7076847330
 H     12.1534803070     -0.1093657316     -8.0378259183
4
# ORCA AIMD Position Step 25, t=12.50 fs, E_Pot=-39.81942775 Hartree, Unit is Angstrom
 C     12.3682234927     -0.5819572659     -7.1241421621
 H     11.8967339337     -1.4785601947     -6.8857365506
 H     13.4430834522     -0.5161965273     -6.7125752521
 H     12.1676628894     -0.0871104368     -8.0266040852
4
# ORCA AIMD Position Step 26, t=13.00 fs, E_Pot=-39.81778691 Hartree, Unit is Angstrom
 C     12.3588266270     -0.5824979188     -7.1219160696
 H     11.8894792411     -1.4623361573     -6.8977043229
 H     13.4388984935     -0.5424879591     -6.7189935945
 H     12.1808685085     -0.0632557249     -8.0177179326
4
# ORCA AIMD Position Step 27, t=13.50 fs, E_Pot=-39.81676339 Hartree, Unit is Angstrom
 C     12.3502148743     -0.5828188269     -7.1194952086
 H     11.8785575892     -1.4508077844     -6.9084925506
 H     13.4302719381     -0.5681829357     -6.7268001207
 H     12.1930072596     -0.0379283518     -8.0109730693
4
# ORCA AIMD Position Step 28, t=14.00 fs, E_Pot=-39.81679994 Hartree, Unit is Angstrom
 C     12.3424395658     -0.5828030710     -7.1169529998
 H     11.8631322725     -1.4451372267     -6.9179602852
 H     13.4174634460     -0.5931841466     -6.7357692152
 H     12.2040393588     -0.0114580075     -8.0058622073
4
# ORCA AIMD Position Step 29, t=14.50 fs, E_Pot=-39.81789366 Hartree, Unit is Angstrom
 C     12.3354913425     -0.5823895345     -7.1143678083
 H     11.8428182608     -1.4456386210     -6.9261923018
 H     13.4009825737     -0.6174148982     -6.7455942002
 H     12.2139462678      0.0156633598     -8.0016736120
4
# ORCA AIMD Position Step 30, t=15.00 fs, E_Pot=-39.81950232 Hartree, Unit is Angstrom
 C     12.3292944155     -0.5815869444     -7.1118120935
 H     11.8177797867     -1.4516656761     -6.9334873142
 H     13.3815834578     -0.6408368819     -6.7559041711
 H     12.2227071947      0.0428544218     -7.9976152136
4
# ORCA AIMD Position Step 31, t=15.50 fs, E_Pot=-39.82080883 Hartree, Unit is Angstrom
 C     12.3237102653     -0.5804643203     -7.1093505422
 H     11.7886884565     -1.4617737266     -6.9402825831
 H     13.3602690859     -0.6634621785     -6.7662635296
 H     12.2302929047      0.0695047089     -7.9929130467
4
# ORCA AIMD Position Step 32, t=16.00 fs, E_Pot=-39.82115770 Hartree, Unit is Angstrom
 C     12.3185534908     -0.5791262964     -7.1070406888
 H     11.7565677969     -1.4740593464     -6.9470527651
 H     13.3382593392     -0.6853698853     -6.7761912518
 H     12.2366643226      0.0950366671     -7.9868863058
4
# ORCA AIMD Position Step 33, t=16.50 fs, E_Pot=-39.82035627 Hartree, Unit is Angstrom
 C     12.3136136648     -0.5776852620     -7.1049343710
 H     11.7225986437     -1.4865254973     -6.9542246270
 H     13.3169199873     -0.7067148414     -6.7851880647
 H     12.2417776269      0.1189474334     -7.9789885518
4
# ORCA AIMD Position Step 34, t=17.00 fs, E_Pot=-39.81870595 Hartree, Unit is Angstrom
 C     12.3086793505     -0.5762413175     -7.1030766870
 H     11.6879534500     -1.4973527663     -6.9621288349
 H     13.2976353624     -0.7277224416     -6.7927789773
 H     12.2455908607      0.1408359424     -7.9688258883
4
# ORCA AIMD Position Step 35, t=17.50 fs, E_Pot=-39.81682047 Hartree, Unit is Angstrom
 C     12.3035616769     -0.5748738462     -7.1015020933
 H     11.6536895958     -1.5050428881     -6.9709867202
 H     13.2816278388     -0.7486620507     -6.7985689043
 H     12.2480699289      0.1604192885     -7.9561608967
4
# ORCA AIMD Position Step 36, t=18.00 fs, E_Pot=-39.81535087 Hartree, Unit is Angstrom
 C     12.2981152249     -0.5736429893     -7.1002290471
 H     11.6206977387     -1.5084609131     -6.9809188031
 H     13.2697557653     -0.7697974253     -6.8023010135
 H     12.2491931831      0.1775427790     -7.9409093876
4
# ORCA AIMD Position Step 37, t=18.50 fs, E_Pot=-39.81473673 Hartree, Unit is Angstrom
 C     12.2922527927     -0.5725968504     -7.0992553834
 H     11.5896872177     -1.5068193175     -6.9919620695
 H     13.2623486811     -0.7913239202     -6.8039006771
 H     12.2489547481      0.1921871078     -7.9231341392
4
# ORCA AIMD Position Step 38, t=19.00 fs, E_Pot=-39.81508385 Hartree, Unit is Angstrom
 C     12.2859503684     -0.5717798235     -7.0985564158
 H     11.5611899123     -1.4996402294     -7.0040877115
 H     13.2591417488     -0.8133127693     -6.8034883378
 H     12.2473671947      0.2044742208     -7.9030369060
4
# ORCA AIMD Position Step 39, t=19.50 fs, E_Pot=-39.81620383 Hartree, Unit is Angstrom
 C     12.2792410960     -0.5712383423     -7.0980866795
 H     11.5355684997     -1.4867182995     -7.0172156431
 H     13.2593372772     -0.8356835106     -6.8013551646
 H     12.2444641108      0.2146712657     -7.8809475388
4
# ORCA AIMD Position Step 40, t=20.00 fs, E_Pot=-39.81775735 Hartree, Unit is Angstrom
 C     12.2722011592     -0.5710221673     -7.0977848445
 H     11.5130201063     -1.4680949052     -7.0312253069
 H     13.2617672346     -0.8582137251     -6.7979106081
 H     12.2403026485      0.2231899216     -7.8573071887
4
# ORCA AIMD Position Step 41, t=20.50 fs, E_Pot=-39.81939826 Hartree, Unit is Angstrom
 C     12.2649338936     -0.5711814303     -7.0975800242
 H     11.4935696047     -1.4440471177     -7.0459647974
 H     13.2650870723     -0.8805748997     -6.7936199872
 H     12.2349660523      0.2305760155     -7.8326465364
4
# ORCA AIMD Position Step 42, t=21.00 fs, E_Pot=-39.82085138 Hartree, Unit is Angstrom
 C     12.2575545520     -0.5717589848     -7.0974002144
 H     11.4770505145     -1.4150928279     -7.0612557795
 H     13.2679748434     -0.9023937036     -6.7889481719
 H     12.2285652426      0.2374847536     -7.8075367073
4
# ORCA AIMD Position Step 43, t=21.50 fs, E_Pot=-39.82192447 Hartree, Unit is Angstrom
 C     12.2501837568     -0.5727820823     -7.0971779862
 H     11.4630704135     -1.3820054763     -7.0769040544
 H     13.2692416389     -0.9232931346     -6.7843192286
 H     12.2212409046      0.2446373791     -7.7825511989
4
# ORCA AIMD Position Step 44, t=22.00 fs, E_Pot=-39.82249592 Hartree, Unit is Angstrom
 C     12.2429439056     -0.5742524336     -7.0968572131
 H     11.4509756671     -1.3458212177     -7.0927112941
 H     13.2679099047     -0.9429345560     -6.7800924881
 H     12.2131631341      0.2527519039     -7.7581977685
4
# ORCA AIMD Position Step 45, t=22.50 fs, E_Pot=-39.82252027 Hartree, Unit is Angstrom
 C     12.2359590390     -0.5761380103     -7.0963978915
 H     11.4398245566     -1.3078259596     -7.1084921461
 H     13.2632427746     -0.9610437829     -6.7765512578
 H     12.2045303928      0.2624585071     -7.7348549236
4
# ORCA AIMD Position Step 46, t=23.00 fs, E_Pot=-39.82207168 Hartree, Unit is Angstrom
 C     12.2293536291     -0.5783692729     -7.0957789809
 H     11.4283974460     -1.2694969137     -7.1240949479
 H     13.2547503871     -0.9774276908     -6.7738988728
 H     12.1955671756      0.2742128460     -7.7127210652
4
# ORCA AIMD Position Step 47, t=23.50 fs, E_Pot=-39.82139784 Hartree, Unit is Angstrom
 C     12.2232458668     -0.5808430970     -7.0949988871
 H     11.4152813121     -1.2323758829     -7.1394208092
 H     13.2421887741     -0.9919853679     -6.7722575833
 H     12.1865201316      0.2882276519     -7.6917906119
4
# ORCA AIMD Position Step 48, t=24.00 fs, E_Pot=-39.82089772 Hartree, Unit is Angstrom
 C     12.2177319563     -0.5834359321     -7.0940740633
 H     11.3990601459     -1.1978710328     -7.1544309198
 H     13.2255617774     -1.0047176691     -6.7716670402
 H     12.1776523417      0.3044411878     -7.6718649254
4
# ORCA AIMD Position Step 49, t=24.50 fs, E_Pot=-39.82094251 Hartree, Unit is Angstrom
 C     12.2128618107     -0.5860233021     -7.0930370575
 H     11.3786024396     -1.1670271008     -7.1691312332
 H     13.2051305613     -1.0157379830     -6.7720806586
 H     12.1692356262      0.3225304195     -7.6525947772
4
# ORCA AIMD Position Step 50, t=25.00 fs, E_Pot=-39.82160031 Hartree, Unit is Angstrom
 C     12.2086129968     -0.5884980037     -7.0919351972
 H     11.3533663226     -1.1403474181     -7.1835331732
 H     13.1814287186     -1.0252852269     -6.7733598958
 H     12.1615410713      0.3419624104     -7.6335413390
4
# ORCA AIMD Position Step 51, t=25.50 fs, E_Pot=-39.82249555 Hartree, Unit is Angstrom
 C     12.2048741942     -0.5907780158     -7.0908298738
 H     11.3235896095     -1.1177537303     -7.1976054993
 H     13.1552799265     -1.0337400386     -6.7752661338
 H     12.1548291704      0.3620642101     -7.6142411808
4
# ORCA AIMD Position Step 52, t=26.00 fs, E_Pot=-39.82298419 Hartree, Unit is Angstrom
 C     12.2014499373     -0.5928036775     -7.0897944543
 H     11.2902676503     -1.0987037959     -7.2112445240
 H     13.1277777849     -1.0416278031     -6.7774652979
 H     12.1493363275      0.3821096525     -7.5942564289
4
# ORCA AIMD Position Step 53, t=26.50 fs, E_Pot=-39.82254574 Hartree, Unit is Angstrom
 C     12.1980823935     -0.5945248835     -7.0889105812
 H     11.2549352141     -1.0824026878     -7.2242729547
 H     13.1002503862     -1.0496166112     -6.7795336852
 H     12.1452690547      0.4013758755     -7.5732141917
4
# ORCA AIMD Position Step 54, t=27.00 fs, E_Pot=-39.82110918 Hartree, Unit is Angstrom
 C     12.1944879666     -0.5958921087     -7.0882609818
 H     11.2193556736     -1.0680120234     -7.2364693425
 H     13.0741429308     -1.0584755583     -6.7809927856
 H     12.1427954972      0.4192038469     -7.5508279637
4
# ORCA AIMD Position Step 55, t=27.50 fs, E_Pot=-39.81910737 Hartree, Unit is Angstrom
 C     12.1903964371     -0.5968552811     -7.0879204101
 H     11.1852450774     -1.0547906919     -7.2476061494
 H     13.0508308091     -1.0689893303     -6.7813695560
 H     12.1420412777      0.4350403830     -7.5269071102
4
# ORCA AIMD Position Step 56, t=28.00 fs, E_Pot=-39.81725128 Hartree, Unit is Angstrom
 C     12.1855863236     -0.5973719962     -7.0879458814
 H     11.1540912032     -1.0421577117     -7.2574818055
 H     13.0313802986     -1.0818279665     -6.7802800539
 H     12.1430880004      0.4484688267     -7.5013573713
4
# ORCA AIMD Position Step 57, t=28.50 fs, E_Pot=-39.81616737 Hartree, Unit is Angstrom
 C     12.1799109710     -0.5974210289     -7.0883682032
 H     11.1270679240     -1.0296997527     -7.2659405930
 H     13.0163222036     -1.0973998401     -6.7775160695
 H     12.1459741650      0.4592305970     -7.4741751772
4
# ORCA AIMD Position Step 58, t=29.00 fs, E_Pot=-39.81611543 Hartree, Unit is Angstrom
 C     12.1733104568     -0.5970145313     -7.0891872516
 H     11.1050153166     -1.0171513868     -7.2728814145
 H     13.0055267356     -1.1157398194     -6.7731027187
 H     12.1506983985      0.4672389526     -7.4454375755
4
# ORCA AIMD Position Step 59, t=29.50 fs, E_Pot=-39.81694631 Hartree, Unit is Angstrom
 C     12.1658072009     -0.5962030542     -7.0903727409
 H     11.0884522080     -1.0043684177     -7.2782595023
 H     12.9982381850     -1.1364816184     -6.7673011259
 H     12.1572249963      0.4725846121     -7.4152886854
4
# ORCA AIMD Position Step 60, t=30.00 fs, E_Pot=-39.81827673 Hartree, Unit is Angstrom
 C     12.1574886972     -0.5950713119     -7.0918702199
 H     11.0775965087     -0.9913050291     -7.2820852880
 H     12.9932533504     -1.1589262454     -6.7605553753
 H     12.1654915023      0.4755310993     -7.3839224320
4
# ORCA AIMD Position Step 61, t=30.50 fs, E_Pot=-39.81971295 Hartree, Unit is Angstrom
 C     12.1484853846     -0.5937268478     -7.0936099373
 H     11.0723776740     -0.9779989092     -7.2844236565
 H     12.9891646485     -1.1821736335     -6.7534082306
 H     12.1754172340      0.4764967898     -7.3515619190
4
# ORCA AIMD Position Step 62, t=31.00 fs, E_Pot=-39.82097832 Hartree, Unit is Angstrom
 C     12.1389515436     -0.5922855554     -7.0955156839
 H     11.0724341997     -0.9645646470     -7.2853951818
 H     12.9845824416     -1.2052661386     -6.7464170800
 H     12.1869111825      0.4760196239     -7.3184368692
4
# ORCA AIMD Position Step 63, t=31.50 fs, E_Pot=-39.82192137 Hartree, Unit is Angstrom
 C     12.1290545851     -0.5908579238     -7.0975109176
 H     11.0770905333     -0.9511941071     -7.2851797928
 H     12.9782805239     -1.2272995595     -6.7400943484
 H     12.1998770411      0.4747046501     -7.2847665794
4
# ORCA AIMD Position Step 64, t=32.00 fs, E_Pot=-39.82246397 Hartree, Unit is Angstrom
 C     12.1189678291     -0.5895347011     -7.0995247892
 H     11.0853441596     -0.9381581214     -7.2840211181
 H     12.9692948040     -1.2475120922     -6.7348627742
 H     12.2142131415      0.4731434790     -7.2507285560
4
# ORCA AIMD Position Step 65, t=32.50 fs, E_Pot=-39.82256241 Hartree, Unit is Angstrom
 C     12.1088735982     -0.5883782448     -7.1014921720
 H     11.0958281833     -0.9258089744     -7.2822310660
 H     12.9569315423     -1.2653118692     -6.7310472957
 H     12.2298044924      0.4718407099     -7.2164616766
4
# ORCA AIMD Position Step 66, t=33.00 fs, E_Pot=-39.82222607 Hartree, Unit is Angstrom
 C     12.0989626858     -0.5874150119     -7.1033546857
 H     11.1068319694     -0.9145694758     -7.2801859238
 H     12.9407667188     -1.2802953624     -6.7288705680
 H     12.2465089588      0.4711315441     -7.1820621854
4
# ORCA AIMD Position Step 67, t=33.50 fs, E_Pot=-39.82158659 Hartree, Unit is Angstrom
 C     12.0894302291     -0.5866335410     -7.1050606452
 H     11.1163849793     -0.9049009648     -7.2783099584
 H     12.9206290044     -1.2922500263     -6.7284561441
 H     12.2641395446      0.4711283690     -7.1475972578
4
# ORCA AIMD Position Step 68, t=34.00 fs, E_Pot=-39.82094951 Hartree, Unit is Angstrom
 C     12.0804622160     -0.5859885616     -7.1065660460
 H     11.1224473963     -0.8972395372     -7.2770395171
 H     12.8965848620     -1.3011554115     -6.7298311075
 H     12.2824494147      0.4717074363     -7.1131264497
4
# ORCA AIMD Position Step 69, t=34.50 fs, E_Pot=-39.82071980 Hartree, Unit is Angstrom
 C     12.0722111285     -0.5854111243     -7.1078374766
 H     11.1232141671     -0.8919004347     -7.2767667395
 H     12.8689304814     -1.3071883708     -6.7329255379
 H     12.3011262731      0.4725396709     -7.0787240860
4
# ORCA AIMD Position Step 70, t=35.00 fs, E_Pot=-39.82116183 Hartree, Unit is Angstrom
 C     12.0647654514     -0.5848220311     -7.1088566781
 H     11.1174732375     -0.8889713376     -7.2777735226
 H     12.8381897416     -1.3107344674     -6.7375684768
 H     12.3197997553      0.4731556300     -7.0444954667
4
# ORCA AIMD Position Step 71, t=35.50 fs, E_Pot=-39.82214238 Hartree, Unit is Angstrom
 C     12.0581245486     -0.5841436527     -7.1096249728
 H     11.1048882165     -0.8882366093     -7.2801785951
 H     12.8051119102     -1.3124031136     -6.7434826948
 H     12.3380607490      0.4730254708     -7.0105825885
4
# ORCA AIMD Position Step 72, t=36.00 fs, E_Pot=-39.82311315 Hartree, Unit is Angstrom
 C     12.0521908189     -0.5833050057     -7.1101652244
 H     11.0860719765     -0.8891744215     -7.2839206442
 H     12.7706643680     -1.3130445181     -6.7502799040
 H     12.3554888070      0.4716330707     -6.9771624529
4
# ORCA AIMD Position Step 73, t=36.50 fs, E_Pot=-39.82341359 Hartree, Unit is Angstrom
 C     12.0467870867     -0.5822427581     -7.1105194429
 H     11.0624111131     -0.8910323685     -7.2887878109
 H     12.7359764287     -1.3137243211     -6.7574799793
 H     12.3716767028      0.4685378988     -6.9444265947
4
# ORCA AIMD Position Step 74, t=37.00 fs, E_Pot=-39.82267924 Hartree, Unit is Angstrom
 C     12.0416873594     -0.5808968569     -7.1107426945
 H     11.0357418871     -0.8929504016     -7.2944714059
 H     12.7022706087     -1.3156842030     -6.7645359604
 H     12.3862563787      0.4634065090     -6.9125745820
4
# ORCA AIMD Position Step 75, t=37.50 fs, E_Pot=-39.82106248 Hartree, Unit is Angstrom
 C     12.0366563856     -0.5792129892     -7.1108938651
 H     11.0080029783     -0.8940814734     -7.3006279488
 H     12.6707204058     -1.3202145117     -6.7709010105
 H     12.3989164310      0.4560354654     -6.8817948565
4
# ORCA AIMD Position Step 76, t=38.00 fs, E_Pot=-39.81913186 Hartree, Unit is Angstrom
 C     12.0314848263     -0.5771523771     -7.1110251822
 H     10.9809789261     -0.8936761394     -7.3069267100
 H     12.6422745601     -1.3284602933     -6.7761201379
 H     12.4094148097      0.4463590851     -6.8522502836
4
# ORCA AIMD Position Step 77, t=38.50 fs, E_Pot=-39.81753659 Hartree, Unit is Angstrom
 C     12.0260146089     -0.5747076082     -7.1111726634
 H     10.9561592114     -0.8911244098     -7.3130781688
 H     12.6174876601     -1.3411903833     -6.7799282151
 H     12.4175868642      0.4344491766     -6.8240655787
4
# ORCA AIMD Position Step 78, t=39.00 fs, E_Pot=-39.81666418 Hartree, Unit is Angstrom
 C     12.0201508669     -0.5719173556     -7.1113502985
 H     10.9346895590     -0.8859654395     -7.3188465685
 H     12.5964221189     -1.3586067522     -6.7823174887
 H     12.4233498984      0.4205093338     -6.7973166836
4
# ORCA AIMD Position Step 79, t=39.50 fs, E_Pot=-39.81651008 Hartree, Unit is Angstrom
 C     12.0138597070     -0.5688718398     -7.1115500911
 H     10.9173772642     -0.8778798058     -7.3240527746
 H     12.5786678207     -1.3802768256     -6.7835425635
 H     12.4267049932      0.4048642609     -6.7720224940
4
# ORCA AIMD Position Step 80, t=40.00 fs, E_Pot=-39.81680170 Hartree, Unit is Angstrom
 C     12.0071552533     -0.5657053503     -7.1117477014
 H     10.9047177987     -0.8666758958     -7.3285731758
 H     12.5634711955     -1.4052201616     -6.7840594754
 H     12.4277358929      0.3879432790     -6.7481396484
4
# ORCA AIMD Position Step 81, t=40.50 fs, E_Pot=-39.81722548 Hartree, Unit is Angstrom
 C     12.0000828014     -0.5625787844     -7.1119108620
 H     10.8969207620     -0.8522771055     -7.3323386838
 H     12.5499151045     -1.4321062415     -6.7844274208
 H     12.4266039772      0.3702569291     -6.7255615115
4
# ORCA AIMD Position Step 82, t=41.00 fs, E_Pot=-39.81758046 Hartree, Unit is Angstrom
 C     11.9927048096     -0.5596588427     -7.1120069590
 H     10.8939233756     -0.8347124785     -7.3353362025
 H     12.5370825130     -1.4594806858     -6.7852120931
 H     12.4235380843      0.3523658285     -6.7041230353
4
# ORCA AIMD Position Step 83, t=41.50 fs, E_Pot=-39.81779920 Hartree, Unit is Angstrom
 C     11.9850933284     -0.5570996534     -7.1120073994
 H     10.8953880158     -0.8141102531     -7.3376134805
 H     12.5241656912     -1.4859515723     -6.7869165781
 H     12.4188181260      0.3348417885     -6.6836129247
4
# ORCA AIMD Position Step 84, t=42.00 fs, E_Pot=-39.81788735 Hartree, Unit is Angstrom
 C     11.9773294047     -0.5550302797     -7.1118879256
 H     10.9006845025     -0.7906916100     -7.3392867486
 H     12.5105131650     -1.5103010887     -6.7899477084
 H     12.4127531610      0.3182247251     -6.6637958573
4
# ORCA AIMD Position Step 85, t=42.50 fs, E_Pot=-39.81785701 Hartree, Unit is Angstrom
 C     11.9695052407     -0.5535452182     -7.1116271326
 H     10.9088744510     -0.7647610108     -7.3405508563
 H     12.4956483740     -1.5315573170     -6.7946021319
 H     12.4056528999      0.3029719142     -6.6444339737
4
# ORCA AIMD Position Step 86, t=43.00 fs, E_Pot=-39.81771005 Hartree, Unit is Angstrom
 C     11.9617295583     -0.5527029650     -7.1112022128
 H     10.9186935822     -0.7366892146     -7.3416870345
 H     12.4792467395     -1.5489937386     -6.8010759723
 H     12.3978045878      0.2894235478     -6.6253203044
4
# ORCA AIMD Position Step 87, t=43.50 fs, E_Pot=-39.81748256 Hartree, Unit is Angstrom
 C     11.9541280745     -0.5525261205     -7.1105860216
 H     10.9285875536     -0.7068796327     -7.3430618348
 H     12.4611187231     -1.5621290372     -6.8094747894
 H     12.3894484624      0.2777701375     -6.6063049933
4
# ORCA AIMD Position Step 88, t=44.00 fs, E_Pot=-39.81731848 Hartree, Unit is Angstrom
 C     11.9468372667     -0.5530051951     -7.1097460346
 H     10.9368175006     -0.6757207233     -7.3451092375
 H     12.4411918861     -1.5707177790     -6.8198246272
 H     12.3807642836      0.2680409791     -6.5873146215
4
# ORCA AIMD Position Step 89, t=44.50 fs, E_Pot=-39.81749257 Hartree, Unit is Angstrom
 C     11.9399880445     -0.5541040050     -7.1086467897
 H     10.9416670367     -0.6435311655     -7.3482870428
 H     12.4195003549     -1.5747487528     -6.8320796029
 H     12.3718692473      0.2601120330     -6.5683590051
4
# ORCA AIMD Position Step 90, t=45.00 fs, E_Pot=-39.81829780 Hartree, Unit is Angstrom
 C     11.9336801728     -0.5557642588     -7.1072561036
 H     10.9417406113     -0.6105184374     -7.3530056692
 H     12.3961826283     -1.5744562224     -6.8461255374
 H     12.3628265220      0.2537303656     -6.5495246035
4
# ORCA AIMD Position Step 91, t=45.50 fs, E_Pot=-39.81981019 Hartree, Unit is Angstrom
 C     11.9279541017     -0.5579065027     -7.1055535999
 H     10.9362791406     -0.5767771774     -7.3595428005
 H     12.3714860786     -1.5703449276     -6.8617809395
 H     12.3536607986      0.2485486601     -6.5309573569
4
# ORCA AIMD Position Step 92, t=46.00 fs, E_Pot=-39.82170174 Hartree, Unit is Angstrom
 C     11.9227715101     -0.5604261839     -7.1035383620
 H     10.9253676598     -0.5423397403     -7.3679736203
 H     12.3457735829     -1.5632235822     -6.8787985481
 H     12.3443759553      0.2441623316     -6.5128399203
4
# ORCA AIMD Position Step 93, t=46.50 fs, E_Pot=-39.82330425 Hartree, Unit is Angstrom
 C     11.9180142644     -0.5631870947     -7.1012323048
 H     10.9099306633     -0.5072600129     -7.3781478786
 H     12.3195247941     -1.5542335298     -6.8968722322
 H     12.3349709524      0.2401438912     -6.4953676910
4
# ORCA AIMD Position Step 94, t=47.00 fs, E_Pot=-39.82393715 Hartree, Unit is Angstrom
 C     11.9135021153     -0.5660167378     -7.0986780549
 H     10.8915182841     -0.4716897748     -7.3897201325