Job execution start: Mon Oct 24 22:42:55 CEST 2022
Shared library path: /home/cs681498/orca:/opt/MPI/openmpi-4.1.1/linux/gcc_4.8.5/lib:/opt/MPI/openmpi-4.1.1/linux/gcc_4.8.5/lib/lib32
Slurm Job ID is: 30556519
Slurm Job name is: 16482
ncm0469

                                 *****************
                                 * O   R   C   A *
                                 *****************

                                            #,                                       
                                            ###                                      
                                            ####                                     
                                            #####                                    
                                            ######                                   
                                           ########,                                 
                                     ,,################,,,,,                         
                               ,,#################################,,                 
                          ,,##########################################,,             
                       ,#########################################, ''#####,          
                    ,#############################################,,   '####,        
                  ,##################################################,,,,####,       
                ,###########''''           ''''###############################       
              ,#####''   ,,,,##########,,,,          '''####'''          '####       
            ,##' ,,,,###########################,,,                        '##       
           ' ,,###''''                  '''############,,,                           
         ,,##''                                '''############,,,,        ,,,,,,###''
      ,#''                                            '''#######################'''  
     '                                                          ''''####''''         
             ,#######,   #######,   ,#######,      ##                                
            ,#'     '#,  ##    ##  ,#'     '#,    #''#        ######   ,####,        
            ##       ##  ##   ,#'  ##            #'  '#       #        #'  '#        
            ##       ##  #######   ##           ,######,      #####,   #    #        
            '#,     ,#'  ##    ##  '#,     ,#' ,#      #,         ##   #,  ,#        
             '#######'   ##     ##  '#######'  #'      '#     #####' # '####'        



                  #######################################################
                  #                        -***-                        #
                  #          Department of theory and spectroscopy      #
                  #    Directorship and core code : Frank Neese         #
                  #        Max Planck Institute fuer Kohlenforschung    #
                  #                Kaiser Wilhelm Platz 1               #
                  #                 D-45470 Muelheim/Ruhr               #
                  #                      Germany                        #
                  #                                                     #
                  #                  All rights reserved                #
                  #                        -***-                        #
                  #######################################################


                         Program Version 5.0.3 -  RELEASE  -


 With contributions from (in alphabetic order):
   Daniel Aravena         : Magnetic Suceptibility
   Michael Atanasov       : Ab Initio Ligand Field Theory (pilot matlab implementation)
   Alexander A. Auer      : GIAO ZORA, VPT2 properties, NMR spectrum
   Ute Becker             : Parallelization
   Giovanni Bistoni       : ED, misc. LED, open-shell LED, HFLD
   Martin Brehm           : Molecular dynamics
   Dmytro Bykov           : SCF Hessian
   Vijay G. Chilkuri      : MRCI spin determinant printing, contributions to CSF-ICE
   Dipayan Datta          : RHF DLPNO-CCSD density
   Achintya Kumar Dutta   : EOM-CC, STEOM-CC
   Dmitry Ganyushin       : Spin-Orbit,Spin-Spin,Magnetic field MRCI
   Miquel Garcia          : C-PCM and meta-GGA Hessian, CC/C-PCM, Gaussian charge scheme
   Yang Guo               : DLPNO-NEVPT2, F12-NEVPT2, CIM, IAO-localization
   Andreas Hansen         : Spin unrestricted coupled pair/coupled cluster methods
   Benjamin Helmich-Paris : MC-RPA, TRAH-SCF, COSX integrals
   Lee Huntington         : MR-EOM, pCC
   Robert Izsak           : Overlap fitted RIJCOSX, COSX-SCS-MP3, EOM
   Marcus Kettner         : VPT2
   Christian Kollmar      : KDIIS, OOCD, Brueckner-CCSD(T), CCSD density, CASPT2, CASPT2-K
   Simone Kossmann        : Meta GGA functionals, TD-DFT gradient, OOMP2, MP2 Hessian
   Martin Krupicka        : Initial AUTO-CI
   Lucas Lang             : DCDCAS
   Marvin Lechner         : AUTO-CI (C++ implementation), FIC-MRCC
   Dagmar Lenk            : GEPOL surface, SMD
   Dimitrios Liakos       : Extrapolation schemes; Compound Job, initial MDCI parallelization
   Dimitrios Manganas     : Further ROCIS development; embedding schemes
   Dimitrios Pantazis     : SARC Basis sets
   Anastasios Papadopoulos: AUTO-CI, single reference methods and gradients
   Taras Petrenko         : DFT Hessian,TD-DFT gradient, ASA, ECA, R-Raman, ABS, FL, XAS/XES, NRVS
   Peter Pinski           : DLPNO-MP2, DLPNO-MP2 Gradient
   Christoph Reimann      : Effective Core Potentials
   Marius Retegan         : Local ZFS, SOC
   Christoph Riplinger    : Optimizer, TS searches, QM/MM, DLPNO-CCSD(T), (RO)-DLPNO pert. Triples
   Tobias Risthaus        : Range-separated hybrids, TD-DFT gradient, RPA, STAB
   Michael Roemelt        : Original ROCIS implementation
   Masaaki Saitow         : Open-shell DLPNO-CCSD energy and density
   Barbara Sandhoefer     : DKH picture change effects
   Avijit Sen             : IP-ROCIS
   Kantharuban Sivalingam : CASSCF convergence, NEVPT2, FIC-MRCI
   Bernardo de Souza      : ESD, SOC TD-DFT
   Georgi Stoychev        : AutoAux, RI-MP2 NMR, DLPNO-MP2 response
   Willem Van den Heuvel  : Paramagnetic NMR
   Boris Wezisla          : Elementary symmetry handling
   Frank Wennmohs         : Technical directorship


 We gratefully acknowledge several colleagues who have allowed us to
 interface, adapt or use parts of their codes:
   Stefan Grimme, W. Hujo, H. Kruse, P. Pracht,  : VdW corrections, initial TS optimization,
                  C. Bannwarth, S. Ehlert          DFT functionals, gCP, sTDA/sTD-DF
   Ed Valeev, F. Pavosevic, A. Kumar             : LibInt (2-el integral package), F12 methods
   Garnet Chan, S. Sharma, J. Yang, R. Olivares  : DMRG
   Ulf Ekstrom                                   : XCFun DFT Library
   Mihaly Kallay                                 : mrcc  (arbitrary order and MRCC methods)
   Jiri Pittner, Ondrej Demel                    : Mk-CCSD
   Frank Weinhold                                : gennbo (NPA and NBO analysis)
   Christopher J. Cramer and Donald G. Truhlar   : smd solvation model
   Lars Goerigk                                  : TD-DFT with DH, B97 family of functionals
   V. Asgeirsson, H. Jonsson                     : NEB implementation
   FAccTs GmbH                                   : IRC, NEB, NEB-TS, DLPNO-Multilevel, CI-OPT
                                                   MM, QMMM, 2- and 3-layer-ONIOM, Crystal-QMMM,
                                                   LR-CPCM, SF, NACMEs, symmetry and pop. for TD-DFT,
                                                   nearIR, NL-DFT gradient (VV10), updates on ESD,
                                                   ML-optimized integration grids
   S Lehtola, MJT Oliveira, MAL Marques          : LibXC Library
   Liviu Ungur et al                             : ANISO software


 Your calculation uses the libint2 library for the computation of 2-el integrals
 For citations please refer to: http://libint.valeyev.net

 Your ORCA version has been built with support for libXC version: 5.1.0
 For citations please refer to: https://tddft.org/programs/libxc/

 This ORCA versions uses:
   CBLAS   interface :  Fast vector & matrix operations
   LAPACKE interface :  Fast linear algebra routines
   SCALAPACK package :  Parallel linear algebra routines
   Shared memory     :  Shared parallel matrices
   BLAS/LAPACK       :  OpenBLAS 0.3.15  USE64BITINT DYNAMIC_ARCH NO_AFFINITY SkylakeX SINGLE_THREADED
        Core in use  :  SkylakeX
   Copyright (c) 2011-2014, The OpenBLAS Project


================================================================================

----- Orbital basis set information -----
Your calculation utilizes the basis: EPR-III
   V. Barone, in Recent Advances in Density Functional Methods, Part 1 (ed. D. P. Chong), World Scientific, Singapore, 1995, p. 287.
   N. Rega, M. Cossi and V. Barone, J. Chem. Phys. 105, 11060 (1996).

----- AuxJ basis set information -----
Your calculation utilizes the AutoAux generation procedure.
  G. L. Stoychev, A. A. Auer, F. Neese, J. Chem. Theory Comput. 13, 554 (2017)

----- AuxC basis set information -----
Your calculation utilizes the AutoAux generation procedure.
  G. L. Stoychev, A. A. Auer, F. Neese, J. Chem. Theory Comput. 13, 554 (2017)

----- AuxJK basis set information -----
Your calculation utilizes the AutoAux generation procedure.
  G. L. Stoychev, A. A. Auer, F. Neese, J. Chem. Theory Comput. 13, 554 (2017)

================================================================================
                                        WARNINGS
                       Please study these warnings very carefully!
================================================================================


WARNING: your system is open-shell and RHF/RKS was chosen
  ===> : WILL SWITCH to UHF/UKS


INFO   : the flag for use of the SHARK integral package has been found!

================================================================================
                                       INPUT FILE
================================================================================
NAME = /home/rwth0701/scratch/cs681498/orcajob__30556519-cfYJ/16482.inp
|  1> !B3LYP EPR-III Autoaux
|  2> !PAL4
|  3> 
|  4> * xyz 0 2
|  5>  C    -75.4988663155   -100.8731157030    -29.2834867184
|  6>  H    -76.5110006780   -101.1916059661    -29.3430164318
|  7>  H    -74.7122947427   -101.4851633897    -29.3300862930
|  8>  H    -75.1387036589    -99.8519060180    -29.2057130220
|  9> *
| 10> 
| 11> %EPRNMR
| 12>         GTENSOR   TRUE
| 13>         NUCLEI    = ALL H {AISO, ADIP, AORB}
| 14>         NUCLEI    = ALL C {AISO, ADIP, AORB}
| 15> END
| 16> 
| 17> 
| 18>                          ****END OF INPUT****
================================================================================

                       ****************************
                       * Single Point Calculation *
                       ****************************

---------------------------------
CARTESIAN COORDINATES (ANGSTROEM)
---------------------------------
  C    -75.498866  -100.873116  -29.283487
  H    -76.511001  -101.191606  -29.343016
  H    -74.712295  -101.485163  -29.330086
  H    -75.138704  -99.851906  -29.205713

----------------------------
CARTESIAN COORDINATES (A.U.)
----------------------------
  NO LB      ZA    FRAG     MASS         X           Y           Z
   0 C     6.0000    0    12.011  -142.672181  -190.622563  -55.337770
   1 H     1.0000    0     1.008  -144.584838  -191.224422  -55.450265
   2 H     1.0000    0     1.008  -141.185776  -191.779165  -55.425831
   3 H     1.0000    0     1.008  -141.991572  -188.692756  -55.190799

--------------------------------
INTERNAL COORDINATES (ANGSTROEM)
--------------------------------
 C      0   0   0     0.000000000000     0.00000000     0.00000000
 H      1   0   0     1.062730352545     0.00000000     0.00000000
 H      1   2   0     0.997731792760   124.35843070     0.00000000
 H      1   2   3     1.085649624786   127.00388115   177.27363307

---------------------------
INTERNAL COORDINATES (A.U.)
---------------------------
 C      0   0   0     0.000000000000     0.00000000     0.00000000
 H      1   0   0     2.008269320516     0.00000000     0.00000000
 H      1   2   0     1.885439843423   124.35843070     0.00000000
 H      1   2   3     2.051580468241   127.00388115   177.27363307

---------------------
BASIS SET INFORMATION
---------------------
There are 2 groups of distinct atoms

 Group   1 Type C   : 12s8p2d1f contracted to 8s5p2d1f pattern {51111111/41111/11/1}
 Group   2 Type H   : 7s2p contracted to 5s2p pattern {31111/11}

Atom   0C    basis set group =>   1
Atom   1H    basis set group =>   2
Atom   2H    basis set group =>   2
Atom   3H    basis set group =>   2
---------------------------------
AUXILIARY/J BASIS SET INFORMATION
---------------------------------
There are 2 groups of distinct atoms

 Group   1 Type C   : 20s17p16d8f3g contracted to 20s17p16d8f3g pattern {11111111111111111111/11111111111111111/1111111111111111/11111111/111}
 Group   2 Type H   : 17s7p3d contracted to 17s7p3d pattern {11111111111111111/1111111/111}

Atom   0C    basis set group =>   1
Atom   1H    basis set group =>   2
Atom   2H    basis set group =>   2
Atom   3H    basis set group =>   2
---------------------------------
AUXILIARY/C BASIS SET INFORMATION
---------------------------------
There are 2 groups of distinct atoms

 Group   1 Type C   : 20s17p16d8f3g contracted to 20s17p16d8f3g pattern {11111111111111111111/11111111111111111/1111111111111111/11111111/111}
 Group   2 Type H   : 17s7p3d contracted to 17s7p3d pattern {11111111111111111/1111111/111}

Atom   0C    basis set group =>   1
Atom   1H    basis set group =>   2
Atom   2H    basis set group =>   2
Atom   3H    basis set group =>   2
----------------------------------
AUXILIARY/JK BASIS SET INFORMATION
----------------------------------
There are 2 groups of distinct atoms

 Group   1 Type C   : 20s17p16d8f3g contracted to 20s17p16d8f3g pattern {11111111111111111111/11111111111111111/1111111111111111/11111111/111}
 Group   2 Type H   : 17s7p3d contracted to 17s7p3d pattern {11111111111111111/1111111/111}

Atom   0C    basis set group =>   1
Atom   1H    basis set group =>   2
Atom   2H    basis set group =>   2
Atom   3H    basis set group =>   2


           ************************************************************
           *        Program running with 4 parallel MPI-processes     *
           *              working on a common directory               *
           ************************************************************
------------------------------------------------------------------------------
                           ORCA GTO INTEGRAL CALCULATION
                           -- RI-GTO INTEGRALS CHOSEN --
------------------------------------------------------------------------------
------------------------------------------------------------------------------
                   ___                                                        
                  /   \      - P O W E R E D   B Y -                         
                 /     \                                                     
                 |  |  |   _    _      __       _____    __    __             
                 |  |  |  | |  | |    /  \     |  _  \  |  |  /  |          
                  \  \/   | |  | |   /    \    | | | |  |  | /  /          
                 / \  \   | |__| |  /  /\  \   | |_| |  |  |/  /          
                |  |  |   |  __  | /  /__\  \  |    /   |      \           
                |  |  |   | |  | | |   __   |  |    \   |  |\   \          
                \     /   | |  | | |  |  |  |  | |\  \  |  | \   \       
                 \___/    |_|  |_| |__|  |__|  |_| \__\ |__|  \__/        
                                                                              
                      - O R C A' S   B I G   F R I E N D -                    
                                      &                                       
                       - I N T E G R A L  F E E D E R -                       
                                                                              
 v1 FN, 2020, v2 2021                                                         
------------------------------------------------------------------------------


Reading SHARK input file /home/rwth0701/scratch/cs681498/orcajob__30556519-cfYJ/16482.SHARKINP.tmp ... ok
----------------------
SHARK INTEGRAL PACKAGE
----------------------

Number of atoms                             ...      4
Number of basis functions                   ...     73
Number of shells                            ...     37
Maximum angular momentum                    ...      3
Integral batch strategy                     ... SHARK/LIBINT Hybrid
RI-J (if used) integral strategy            ... SPLIT-RIJ (Revised 2003 algorithm where possible)
Printlevel                                  ...      1
Contraction scheme used                     ... SEGMENTED contraction
Coulomb Range Separation                    ... NOT USED
Exchange Range Separation                   ... NOT USED
Finite Nucleus Model                        ... NOT USED
Auxiliary Coulomb fitting basis             ... AVAILABLE
   # of basis functions in Aux-J            ...    393
   # of shells in Aux-J                     ...    145
   Maximum angular momentum in Aux-J        ...      4
Auxiliary J/K fitting basis                 ... AVAILABLE
   # of basis functions in Aux-JK           ...    393
   # of shells in Aux-JK                    ...    145
   Maximum angular momentum in Aux-JK       ...      4
Auxiliary Correlation fitting basis         ... AVAILABLE
   # of basis functions in Aux-C            ...    393
   # of shells in Aux-C                     ...    145
   Maximum angular momentum in Aux-C        ...      4
Auxiliary 'external' fitting basis          ... NOT available
Integral threshold                          ...     1.000000e-10
Primitive cut-off                           ...     1.000000e-11
Primitive pair pre-selection threshold      ...     1.000000e-11

Calculating pre-screening integrals         ... done (  0.0 sec) Dimension = 37
Organizing shell pair data                  ... done (  0.1 sec)
Shell pair information
Total number of shell pairs                 ...       703
Shell pairs after pre-screening             ...       688
Total number of primitive shell pairs       ...      1300
Primitive shell pairs kept                  ...      1184
          la=0 lb=0:    261 shell pairs
          la=1 lb=0:    253 shell pairs
          la=1 lb=1:     66 shell pairs
          la=2 lb=0:     46 shell pairs
          la=2 lb=1:     22 shell pairs
          la=2 lb=2:      3 shell pairs
          la=3 lb=0:     23 shell pairs
          la=3 lb=1:     11 shell pairs
          la=3 lb=2:      2 shell pairs
          la=3 lb=3:      1 shell pairs

Calculating one electron integrals          ... done (  0.0 sec)
Calculating RI/J V-Matrix + Cholesky decomp.... done (  0.1 sec)
Calculating RI/JK V-Matrix + Cholesky decomp... done (  0.1 sec)
Calculating RI/C V-Matrix + Cholesky decomp.... done (  0.1 sec)
Calculating Nuclear repulsion               ... done (  0.0 sec) ENN=      9.972721909665 Eh

SHARK setup successfully completed in   0.7 seconds

Maximum memory used throughout the entire GTOINT-calculation: 13.7 MB


           ************************************************************
           *        Program running with 4 parallel MPI-processes     *
           *              working on a common directory               *
           ************************************************************
-------------------------------------------------------------------------------
                                 ORCA SCF
-------------------------------------------------------------------------------

------------
SCF SETTINGS
------------
Hamiltonian:
 Density Functional     Method          .... DFT(GTOs)
 Exchange Functional    Exchange        .... B88
   X-Alpha parameter    XAlpha          ....  0.666667
   Becke's b parameter  XBeta           ....  0.004200
 Correlation Functional Correlation     .... LYP
 LDA part of GGA corr.  LDAOpt          .... VWN-5
 Gradients option       PostSCFGGA      .... off
 Hybrid DFT is turned on
   Fraction HF Exchange ScalHFX         ....  0.200000
   Scaling of DF-GGA-X  ScalDFX         ....  0.720000
   Scaling of DF-GGA-C  ScalDFC         ....  0.810000
   Scaling of DF-LDA-C  ScalLDAC        ....  1.000000
   Perturbative correction              ....  0.000000
   Density functional embedding theory  .... OFF
   NL short-range parameter             ....  4.800000
 RI-approximation to the Coulomb term is turned on
   Number of AuxJ basis functions       .... 393
   RIJ-COSX (HFX calculated with COS-X)).... on


General Settings:
 Integral files         IntName         .... /home/rwth0701/scratch/cs681498/orcajob__30556519-cfYJ/16482
 Hartree-Fock type      HFTyp           .... UHF
 Total Charge           Charge          ....    0
 Multiplicity           Mult            ....    2
 Number of Electrons    NEL             ....    9
 Basis Dimension        Dim             ....   73
 Nuclear Repulsion      ENuc            ....      9.9727219097 Eh

Convergence Acceleration:
 DIIS                   CNVDIIS         .... on
   Start iteration      DIISMaxIt       ....    12
   Startup error        DIISStart       ....  0.200000
   # of expansion vecs  DIISMaxEq       ....     5
   Bias factor          DIISBfac        ....   1.050
   Max. coefficient     DIISMaxC        ....  10.000
 Trust-Rad. Augm. Hess. CNVTRAH         .... auto
   Auto Start mean grad. ratio tolernc. ....  1.125000
   Auto Start start iteration           ....    20
   Auto Start num. interpolation iter.  ....    10
   Max. Number of Micro iterations      ....    16
   Max. Number of Macro iterations      .... Maxiter - #DIIS iter
   Number of Davidson start vectors     ....     2
   Converg. threshold I  (grad. norm)   ....   5.000e-05
   Converg. threshold II (energy diff.) ....   1.000e-06
   Grad. Scal. Fac. for Micro threshold ....   0.100
   Minimum threshold for Micro iter.    ....   0.010
   NR start threshold (gradient norm)   ....   0.001
   Initial trust radius                 ....   0.400
   Minimum AH scaling param. (alpha)    ....   1.000
   Maximum AH scaling param. (alpha)    .... 1000.000
   Orbital update algorithm             .... Taylor
   White noise on init. David. guess    .... on
   Maximum white noise                  ....   0.010
   Quad. conv. algorithm                .... NR
 SOSCF                  CNVSOSCF        .... off
 Level Shifting         CNVShift        .... on
   Level shift para.    LevelShift      ....    0.2500
   Turn off err/grad.   ShiftErr        ....    0.0010
 Zerner damping         CNVZerner       .... off
 Static damping         CNVDamp         .... on
   Fraction old density DampFac         ....    0.7000
   Max. Damping (<1)    DampMax         ....    0.9800
   Min. Damping (>=0)   DampMin         ....    0.0000
   Turn off err/grad.   DampErr         ....    0.1000
 Fernandez-Rico         CNVRico         .... off

SCF Procedure:
 Maximum # iterations   MaxIter         ....   125
 SCF integral mode      SCFMode         .... Direct
   Integral package                     .... SHARK and LIBINT hybrid scheme
 Reset frequency        DirectResetFreq ....    20
 Integral Threshold     Thresh          ....  1.000e-10 Eh
 Primitive CutOff       TCut            ....  1.000e-11 Eh

Convergence Tolerance:
 Convergence Check Mode ConvCheckMode   .... Total+1el-Energy
 Convergence forced     ConvForced      .... 0
 Energy Change          TolE            ....  1.000e-06 Eh
 1-El. energy change                    ....  1.000e-03 Eh
 DIIS Error             TolErr          ....  1.000e-06


Diagonalization of the overlap matrix:
Smallest eigenvalue                        ... 1.407e-03
Time for diagonalization                   ...    0.002 sec
Threshold for overlap eigenvalues          ... 1.000e-08
Number of eigenvalues below threshold      ... 0
Time for construction of square roots      ...    0.011 sec
Total time needed                          ...    0.013 sec

Time for model grid setup =    0.103 sec

------------------------------
INITIAL GUESS: MODEL POTENTIAL
------------------------------
Loading Hartree-Fock densities                     ... done
Calculating cut-offs                               ... done
Initializing the effective Hamiltonian             ... done
Setting up the integral package (SHARK)            ... done
Starting the Coulomb interaction                   ... done (   0.1 sec)
Reading the grid                                   ... done
Mapping shells                                     ... done
Starting the XC term evaluation                    ... done (   0.0 sec)
  promolecular density results
     # of electrons  =      8.998812749
     EX              =     -5.986191025
     EC              =     -0.261485411
     EX+EC           =     -6.247676436
Transforming the Hamiltonian                       ... done (   0.0 sec)
Diagonalizing the Hamiltonian                      ... done (   0.0 sec)
Back transforming the eigenvectors                 ... done (   0.0 sec)
Now organizing SCF variables                       ... done
                      ------------------
                      INITIAL GUESS DONE (   0.2 sec)
                      ------------------
-------------------
DFT GRID GENERATION
-------------------

General Integration Accuracy     IntAcc      ... 4.388
Radial Grid Type                 RadialGrid  ... OptM3 with GC (2021)
Angular Grid (max. ang.)         AngularGrid ... 4 (Lebedev-302)
Angular grid pruning method      GridPruning ... 4 (adaptive)
Weight generation scheme         WeightScheme... Becke
Basis function cutoff            BFCut       ... 1.0000e-10
Integration weight cutoff        WCut        ... 1.0000e-14
Angular grids for H and He will be reduced by one unit
Partially contracted basis set               ... off
Rotationally invariant grid construction     ... off

Total number of grid points                  ...    17032
Total number of batches                      ...      269
Average number of points per batch           ...       63
Average number of grid points per atom       ...     4258
Time for grid setup =    0.253 sec

--------------------
COSX GRID GENERATION
--------------------

GRIDX 1
-------
General Integration Accuracy     IntAcc      ... 3.816
Radial Grid Type                 RadialGrid  ... OptM3 with GC (2021)
Angular Grid (max. ang.)         AngularGrid ... 1 (Lebedev-50)
Angular grid pruning method      GridPruning ... 4 (adaptive)
Weight generation scheme         WeightScheme... Becke
Basis function cutoff            BFCut       ... 1.0000e-10
Integration weight cutoff        WCut        ... 1.0000e-14
Angular grids for H and He will be reduced by one unit
Partially contracted basis set               ... on
Rotationally invariant grid construction     ... off

Total number of grid points                  ...     2146
Total number of batches                      ...       35
Average number of points per batch           ...       61
Average number of grid points per atom       ...      536
UseSFitting                                  ... on

GRIDX 2
-------
General Integration Accuracy     IntAcc      ... 4.020
Radial Grid Type                 RadialGrid  ... OptM3 with GC (2021)
Angular Grid (max. ang.)         AngularGrid ... 2 (Lebedev-110)
Angular grid pruning method      GridPruning ... 4 (adaptive)
Weight generation scheme         WeightScheme... Becke
Basis function cutoff            BFCut       ... 1.0000e-10
Integration weight cutoff        WCut        ... 1.0000e-14
Angular grids for H and He will be reduced by one unit
Partially contracted basis set               ... on
Rotationally invariant grid construction     ... off

Total number of grid points                  ...     5057
Total number of batches                      ...       81
Average number of points per batch           ...       62
Average number of grid points per atom       ...     1264
UseSFitting                                  ... on

GRIDX 3
-------
General Integration Accuracy     IntAcc      ... 4.338
Radial Grid Type                 RadialGrid  ... OptM3 with GC (2021)
Angular Grid (max. ang.)         AngularGrid ... 3 (Lebedev-194)
Angular grid pruning method      GridPruning ... 4 (adaptive)
Weight generation scheme         WeightScheme... Becke
Basis function cutoff            BFCut       ... 1.0000e-10
Integration weight cutoff        WCut        ... 1.0000e-14
Angular grids for H and He will be reduced by one unit
Partially contracted basis set               ... on
Rotationally invariant grid construction     ... off

Total number of grid points                  ...    11711
Total number of batches                      ...      186
Average number of points per batch           ...       62
Average number of grid points per atom       ...     2928
UseSFitting                                  ... on

Time for X-Grid setup             =    0.386 sec

--------------
SCF ITERATIONS
--------------
ITER       Energy         Delta-E        Max-DP      RMS-DP      [F,P]     Damp
               ***  Starting incremental Fock matrix formation  ***
  0    -39.7713875285   0.000000000000 0.01673146  0.00053540  0.1002996 0.7000
  1    -39.7932261777  -0.021838649181 0.01050348  0.00039726  0.0531435 0.7000
                               ***Turning on DIIS***
  2    -39.8030233781  -0.009797200382 0.01701798  0.00069351  0.0218671 0.0000
  3    -39.8164201778  -0.013396799660 0.00922766  0.00029678  0.0302105 0.0000
  4    -39.8203628184  -0.003942640598 0.00321516  0.00008300  0.0062414 0.0000
  5    -39.8205254953  -0.000162676908 0.00112858  0.00003310  0.0020290 0.0000
  6    -39.8205430505  -0.000017555260 0.00090436  0.00002445  0.0008349 0.0000
               *** Restarting incremental Fock matrix formation ***
                                   *** Resetting DIIS ***
  7    -39.8205499404  -0.000006889817 0.00007298  0.00000303  0.0000921 0.0000
                 **** Energy Check signals convergence ****

               *****************************************************
               *                     SUCCESS                       *
               *           SCF CONVERGED AFTER   8 CYCLES          *
               *****************************************************

Old exchange energy                            =     -1.248706621 Eh
New exchange energy                            =     -1.248708270 Eh
Exchange energy change after final integration =     -0.000001649 Eh
Total energy after final integration           =    -39.820551670 Eh
Final COS-X integration done in                =     0.172 sec

----------------
TOTAL SCF ENERGY
----------------

Total Energy       :          -39.82055167 Eh           -1083.57230 eV

Components:
Nuclear Repulsion  :            9.97272191 Eh             271.37156 eV
Electronic Energy  :          -49.79327358 Eh           -1354.94386 eV
One Electron Energy:          -72.18958752 Eh           -1964.37854 eV
Two Electron Energy:           22.39631394 Eh             609.43469 eV
Max COSX asymmetry :            0.00000007 Eh               0.00000 eV

Virial components:
Potential Energy   :          -79.58757255 Eh           -2165.68795 eV
Kinetic Energy     :           39.76702088 Eh            1082.11565 eV
Virial Ratio       :            2.00134611


DFT components:
N(Alpha)           :        4.999999548049 electrons
N(Beta)            :        4.000000314629 electrons
N(Total)           :        8.999999862678 electrons
E(X)               :       -4.940142875327 Eh       
E(C)               :       -0.311287642878 Eh       
E(XC)              :       -5.251430518205 Eh       
DFET-embed. en.    :        0.000000000000 Eh       

---------------
SCF CONVERGENCE
---------------

  Last Energy change         ...   -8.0305e-08  Tolerance :   1.0000e-06
  Last MAX-Density change    ...    0.0000e+00  Tolerance :   1.0000e-05
  Last RMS-Density change    ...    0.0000e+00  Tolerance :   1.0000e-06
  Last DIIS Error            ...    6.7009e-05  Tolerance :   1.0000e-06

             **** THE GBW FILE WAS UPDATED (/home/rwth0701/scratch/cs681498/orcajob__30556519-cfYJ/16482.gbw) ****
             **** DENSITY /home/rwth0701/scratch/cs681498/orcajob__30556519-cfYJ/16482.scfp WAS UPDATED ****
             **** ENERGY FILE WAS UPDATED (/home/rwth0701/scratch/cs681498/orcajob__30556519-cfYJ/16482.en.tmp) ****
----------------------
UHF SPIN CONTAMINATION
----------------------

Warning: in a DFT calculation there is little theoretical justification to 
         calculate <S**2> as in Hartree-Fock theory. We will do it anyways
         but you should keep in mind that the values have only limited relevance

Expectation value of <S**2>     :     0.753366
Ideal value S*(S+1) for S=0.5   :     0.750000
Deviation                       :     0.003366

             **** THE GBW FILE WAS UPDATED (/home/rwth0701/scratch/cs681498/orcajob__30556519-cfYJ/16482.gbw) ****
             **** DENSITY /home/rwth0701/scratch/cs681498/orcajob__30556519-cfYJ/16482.scfp WAS UPDATED ****
----------------
ORBITAL ENERGIES
----------------
                 SPIN UP ORBITALS
  NO   OCC          E(Eh)            E(eV) 
   0   1.0000     -10.174304      -276.8569 
   1   1.0000      -0.697985       -18.9931 
   2   1.0000      -0.445184       -12.1141 
   3   1.0000      -0.412761       -11.2318 
   4   1.0000      -0.234784        -6.3888 
   5   0.0000       0.001688         0.0459 
   6   0.0000       0.035062         0.9541 
   7   0.0000       0.038484         1.0472 
   8   0.0000       0.047630         1.2961 
   9   0.0000       0.088522         2.4088 
  10   0.0000       0.094937         2.5834 
  11   0.0000       0.106075         2.8865 
  12   0.0000       0.219185         5.9643 
  13   0.0000       0.224927         6.1206 
  14   0.0000       0.246055         6.6955 
  15   0.0000       0.276717         7.5298 
  16   0.0000       0.305069         8.3014 
  17   0.0000       0.324940         8.8421 
  18   0.0000       0.366920         9.9844 
  19   0.0000       0.551094        14.9960 
  20   0.0000       0.577231        15.7072 
  21   0.0000       0.732782        19.9400 
  22   0.0000       0.740681        20.1550 
  23   0.0000       0.762645        20.7526 
  24   0.0000       0.837969        22.8023 
  25   0.0000       0.890401        24.2290 
  26   0.0000       0.932540        25.3757 
  27   0.0000       0.958466        26.0812 
  28   0.0000       0.971048        26.4236 
  29   0.0000       1.059237        28.8233 
  30   0.0000       1.068555        29.0769 
  31   0.0000       1.140694        31.0399 
  32   0.0000       1.171757        31.8851 
  33   0.0000       1.176313        32.0091 
  34   0.0000       1.469873        39.9973 
  35   0.0000       1.477047        40.1925 
  36   0.0000       1.538461        41.8636 
  37   0.0000       1.721393        46.8415 
  38   0.0000       1.771785        48.2127 
  39   0.0000       1.793049        48.7913 
  40   0.0000       2.705436        73.6187 
  41   0.0000       2.727231        74.2117 
  42   0.0000       2.874947        78.2313 
  43   0.0000       2.890018        78.6414 
  44   0.0000       2.935788        79.8868 
  45   0.0000       2.988759        81.3283 
  46   0.0000       3.003874        81.7396 
  47   0.0000       3.151689        85.7618 
  48   0.0000       3.187440        86.7347 
  49   0.0000       3.243687        88.2652 
  50   0.0000       3.257879        88.6514 
  51   0.0000       3.717723       101.1644 
  52   0.0000       3.735836       101.6573 
  53   0.0000       3.838330       104.4463 
  54   0.0000       3.989599       108.5625 
  55   0.0000       4.025711       109.5452 
  56   0.0000       4.123124       112.1959 
  57   0.0000       4.221586       114.8752 
  58   0.0000       4.223380       114.9240 
  59   0.0000       4.264038       116.0304 
  60   0.0000       4.702502       127.9616 
  61   0.0000       5.038050       137.0923 
  62   0.0000       5.407507       147.1457 
  63   0.0000       5.568876       151.5368 
  64   0.0000       5.685006       154.6969 
  65   0.0000       6.097421       165.9193 
  66   0.0000       6.230165       169.5314 
  67   0.0000       7.874306       214.2708 
  68   0.0000      29.145935       793.1012 
  69   0.0000      37.187222      1011.9157 
  70   0.0000      37.229519      1013.0667 
  71   0.0000      37.301859      1015.0352 
  72   0.0000     133.620206      3635.9906 

                 SPIN DOWN ORBITALS
  NO   OCC          E(Eh)            E(eV) 
   0   1.0000     -10.160039      -276.4687 
   1   1.0000      -0.659013       -17.9327 
   2   1.0000      -0.435493       -11.8504 
   3   1.0000      -0.402684       -10.9576 
   4   0.0000      -0.077694        -2.1142 
   5   0.0000       0.004584         0.1247 
   6   0.0000       0.034680         0.9437 
   7   0.0000       0.038011         1.0343 
   8   0.0000       0.060793         1.6543 
   9   0.0000       0.090828         2.4716 
  10   0.0000       0.096220         2.6183 
  11   0.0000       0.108204         2.9444 
  12   0.0000       0.220205         5.9921 
  13   0.0000       0.226614         6.1665 
  14   0.0000       0.265818         7.2333 
  15   0.0000       0.310192         8.4408 
  16   0.0000       0.310893         8.4598 
  17   0.0000       0.331231         9.0133 
  18   0.0000       0.379103        10.3159 
  19   0.0000       0.578114        15.7313 
  20   0.0000       0.606278        16.4977 
  21   0.0000       0.733704        19.9651 
  22   0.0000       0.744269        20.2526 
  23   0.0000       0.787374        21.4255 
  24   0.0000       0.837083        22.7782 
  25   0.0000       0.898238        24.4423 
  26   0.0000       0.940562        25.5940 
  27   0.0000       0.970139        26.3988 
  28   0.0000       0.990859        26.9626 
  29   0.0000       1.088189        29.6111 
  30   0.0000       1.118879        30.4462 
  31   0.0000       1.163326        31.6557 
  32   0.0000       1.185473        32.2584 
  33   0.0000       1.188239        32.3336 
  34   0.0000       1.483094        40.3570 
  35   0.0000       1.491958        40.5982 
  36   0.0000       1.550072        42.1796 
  37   0.0000       1.727141        46.9979 
  38   0.0000       1.778163        48.3863 
  39   0.0000       1.801591        49.0238 
  40   0.0000       2.746377        74.7327 
  41   0.0000       2.768152        75.3252 
  42   0.0000       2.879172        78.3462 
  43   0.0000       2.916957        79.3744 
  44   0.0000       2.969486        80.8038 
  45   0.0000       3.016449        82.0818 
  46   0.0000       3.055384        83.1412 
  47   0.0000       3.201408        87.1148 
  48   0.0000       3.236422        88.0675 
  49   0.0000       3.300244        89.8042 
  50   0.0000       3.311733        90.1168 
  51   0.0000       3.736941       101.6873 
  52   0.0000       3.780441       102.8710 
  53   0.0000       3.837911       104.4349 
  54   0.0000       4.005446       108.9937 
  55   0.0000       4.027091       109.5827 
  56   0.0000       4.142287       112.7174 
  57   0.0000       4.228690       115.0685 
  58   0.0000       4.245868       115.5359 
  59   0.0000       4.266080       116.0859 
  60   0.0000       4.703395       127.9859 
  61   0.0000       5.059820       137.6847 
  62   0.0000       5.406241       147.1113 
  63   0.0000       5.565982       151.4581 
  64   0.0000       5.683835       154.6650 
  65   0.0000       6.102295       166.0519 
  66   0.0000       6.234250       169.6426 
  67   0.0000       7.910290       215.2499 
  68   0.0000      29.172814       793.8326 
  69   0.0000      37.175653      1011.6009 
  70   0.0000      37.217802      1012.7479 
  71   0.0000      37.291626      1014.7567 
  72   0.0000     133.627979      3636.2022 

                    ********************************
                    * MULLIKEN POPULATION ANALYSIS *
                    ********************************

--------------------------------------------
MULLIKEN ATOMIC CHARGES AND SPIN POPULATIONS
--------------------------------------------
   0 C :   -0.431645    1.098730
   1 H :    0.150046   -0.032061
   2 H :    0.144857   -0.030783
   3 H :    0.136742   -0.035886
Sum of atomic charges         :   -0.0000000
Sum of atomic spin populations:    1.0000000

-----------------------------------------------------
MULLIKEN REDUCED ORBITAL CHARGES AND SPIN POPULATIONS
-----------------------------------------------------
CHARGE
  0 C s       :     3.310161  s :     3.310161
      pz      :     0.967159  p :     3.093954
      px      :     1.058029
      py      :     1.068766
      dz2     :     0.005742  d :     0.024228
      dxz     :     0.000150
      dyz     :     0.000123
      dx2y2   :     0.007535
      dxy     :     0.010679
      f0      :     0.000044  f :     0.003302
      f+1     :     0.000824
      f-1     :     0.000677
      f+2     :     0.000025
      f-2     :     0.000019
      f+3     :     0.000678
      f-3     :     0.001034
  1 H s       :     0.821909  s :     0.821909
      pz      :     0.011342  p :     0.028045
      px      :     0.009587
      py      :     0.007117
  2 H s       :     0.825352  s :     0.825352
      pz      :     0.011673  p :     0.029791
      px      :     0.009138
      py      :     0.008979
  3 H s       :     0.836596  s :     0.836596
      pz      :     0.010340  p :     0.026662
      px      :     0.006817
      py      :     0.009505

SPIN
  0 C s       :     0.067520  s :     0.067520
      pz      :     0.959788  p :     1.035591
      px      :     0.034570
      py      :     0.041234
      dz2     :    -0.004626  d :    -0.003019
      dxz     :     0.000008
      dyz     :    -0.000073
      dx2y2   :     0.000620
      dxy     :     0.001053
      f0      :    -0.000015  f :    -0.001363
      f+1     :    -0.000686
      f-1     :    -0.000593
      f+2     :    -0.000004
      f-2     :    -0.000013
      f+3     :    -0.000020
      f-3     :    -0.000032
  1 H s       :    -0.043262  s :    -0.043262
      pz      :     0.011271  p :     0.011201
      px      :    -0.000039
      py      :    -0.000031
  2 H s       :    -0.041590  s :    -0.041590
      pz      :     0.011602  p :     0.010807
      px      :    -0.000206
      py      :    -0.000590
  3 H s       :    -0.045637  s :    -0.045637
      pz      :     0.010285  p :     0.009751
      px      :    -0.000299
      py      :    -0.000235


                     *******************************
                     * LOEWDIN POPULATION ANALYSIS *
                     *******************************

-------------------------------------------
LOEWDIN ATOMIC CHARGES AND SPIN POPULATIONS
-------------------------------------------
   0 C :   -0.119909    0.892966
   1 H :    0.049560    0.032761
   2 H :    0.011066    0.044796
   3 H :    0.059283    0.029476

----------------------------------------------------
LOEWDIN REDUCED ORBITAL CHARGES AND SPIN POPULATIONS
----------------------------------------------------
CHARGE
  0 C s       :     2.855593  s :     2.855593
      pz      :     0.862757  p :     3.164503
      px      :     1.149766
      py      :     1.151980
      dz2     :     0.007640  d :     0.091665
      dxz     :     0.000488
      dyz     :     0.000311
      dx2y2   :     0.038185
      dxy     :     0.045041
      f0      :     0.000298  f :     0.008148
      f+1     :     0.002173
      f-1     :     0.001711
      f+2     :     0.000044
      f-2     :     0.000069
      f+3     :     0.001621
      f-3     :     0.002232
  1 H s       :     0.802629  s :     0.802629
      pz      :     0.044269  p :     0.147811
      px      :     0.066591
      py      :     0.036952
  2 H s       :     0.813713  s :     0.813713
      pz      :     0.053187  p :     0.175222
      px      :     0.062715
      py      :     0.059319
  3 H s       :     0.797529  s :     0.797529
      pz      :     0.041732  p :     0.143188
      px      :     0.035248
      py      :     0.066208

SPIN
  0 C s       :     0.017729  s :     0.017729
      pz      :     0.854653  p :     0.883901
      px      :     0.011017
      py      :     0.018231
      dz2     :    -0.004136  d :    -0.007386
      dxz     :    -0.000020
      dyz     :    -0.000071
      dx2y2   :    -0.001467
      dxy     :    -0.001693
      f0      :     0.000193  f :    -0.001278
      f+1     :    -0.000610
      f-1     :    -0.000522
      f+2     :    -0.000007
      f-2     :    -0.000013
      f+3     :    -0.000135
      f-3     :    -0.000184
  1 H s       :    -0.016668  s :    -0.016668
      pz      :     0.043902  p :     0.049429
      px      :     0.004241
      py      :     0.001286
  2 H s       :    -0.013307  s :    -0.013307
      pz      :     0.052777  p :     0.058103
      px      :     0.003187
      py      :     0.002139
  3 H s       :    -0.016742  s :    -0.016742
      pz      :     0.041367  p :     0.046218
      px      :     0.001040
      py      :     0.003811


                      *****************************
                      * MAYER POPULATION ANALYSIS *
                      *****************************

  NA   - Mulliken gross atomic population
  ZA   - Total nuclear charge
  QA   - Mulliken gross atomic charge
  VA   - Mayer's total valence
  BVA  - Mayer's bonded valence
  FA   - Mayer's free valence

  ATOM       NA         ZA         QA         VA         BVA        FA
  0 C      6.4316     6.0000    -0.4316     3.8873     2.9453     0.9420
  1 H      0.8500     1.0000     0.1500     0.9899     0.9880     0.0019
  2 H      0.8551     1.0000     0.1449     0.9810     0.9793     0.0017
  3 H      0.8633     1.0000     0.1367     0.9850     0.9829     0.0021

  Mayer bond orders larger than 0.100000
B(  0-C ,  1-H ) :   0.9806 B(  0-C ,  2-H ) :   0.9817 B(  0-C ,  3-H ) :   0.9830 


-------
TIMINGS
-------

Total SCF time: 0 days 0 hours 0 min 6 sec 

Total time                  ....       6.800 sec
Sum of individual times     ....       5.945 sec  ( 87.4%)

Fock matrix formation       ....       4.937 sec  ( 72.6%)
  Split-RI-J                ....       0.410 sec  (  8.3% of F)
  Chain of spheres X        ....       0.971 sec  ( 19.7% of F)
  XC integration            ....       2.110 sec  ( 42.7% of F)
    Basis function eval.    ....       0.113 sec  (  5.3% of XC)
    Density eval.           ....       0.161 sec  (  7.6% of XC)
    XC-Functional eval.     ....       0.134 sec  (  6.4% of XC)
    XC-Potential eval.      ....       0.161 sec  (  7.7% of XC)
Diagonalization             ....       0.041 sec  (  0.6%)
Density matrix formation    ....       0.002 sec  (  0.0%)
Population analysis         ....       0.059 sec  (  0.9%)
Initial guess               ....       0.085 sec  (  1.3%)
Orbital Transformation      ....       0.000 sec  (  0.0%)
Orbital Orthonormalization  ....       0.000 sec  (  0.0%)
DIIS solution               ....       0.079 sec  (  1.2%)
Grid generation             ....       0.742 sec  ( 10.9%)

Maximum memory used throughout the entire SCF-calculation: 59.0 MB

-------------------------   --------------------
FINAL SINGLE POINT ENERGY       -39.820551669741
-------------------------   --------------------

   --->>> g-tensor requested, so NeedSOC=true

                            ***************************************
                            *     ORCA property calculations      *
                            ***************************************

                                    ---------------------
                                    Active property flags
                                    ---------------------
   (+) Dipole Moment
   (+) g-tensor
   (+) Nuclear properties (Hyperfine,Quadrupole)
   (+) Spin-Orbit Integrals are needed


------------------------------------------------------------------------------
                       ORCA ELECTRIC PROPERTIES CALCULATION
------------------------------------------------------------------------------

Dipole Moment Calculation                       ... on
Quadrupole Moment Calculation                   ... off
Polarizability Calculation                      ... off
GBWName                                         ... /home/rwth0701/scratch/cs681498/orcajob__30556519-cfYJ/16482.gbw
Electron density                                ... /home/rwth0701/scratch/cs681498/orcajob__30556519-cfYJ/16482.scfp
The origin for moment calculation is the CENTER OF MASS  = (-142.655128, -190.611075 -55.341363)

-------------
DIPOLE MOMENT
-------------
                                X             Y             Z
Electronic contribution:     -0.07974      -0.07625       0.00969
Nuclear contribution   :      0.10088       0.06796      -0.02125
                        -----------------------------------------
Total Dipole Moment    :      0.02114      -0.00829      -0.01156
                        -----------------------------------------
Magnitude (a.u.)       :      0.02549
Magnitude (Debye)      :      0.06478



--------------------
Rotational spectrum 
--------------------
 
Rotational constants in cm-1:    11.885595     8.825247     5.065855 
Rotational constants in MHz : 356321.163122 264574.240663 151870.521802 

 Dipole components along the rotational axes: 
x,y,z [a.u.] :     0.013510     0.018438    -0.011272 
x,y,z [Debye]:     0.034340     0.046865    -0.028651 

 


           ************************************************************
           *        Program running with 4 parallel MPI-processes     *
           *              working on a common directory               *
           ************************************************************
------------------------------------------------------------------------------
                         ORCA SPIN-ORBIT COUPLING CALCULATION
------------------------------------------------------------------------------

GBW file                                    ... /home/rwth0701/scratch/cs681498/orcajob__30556519-cfYJ/16482.gbw
Input density                               ... /home/rwth0701/scratch/cs681498/orcajob__30556519-cfYJ/16482.scfp
Output integrals                            ... /home/rwth0701/scratch/cs681498/orcajob__30556519-cfYJ/16482
Operator type                               ... Mean-field/Effective potential
   One-Electron Terms                       ... 1
   Coulomb Contribution                     ... 3
   Exchange Contribution                    ... 3
   Correlation Contribution                 ... 0
   Maximum number of centers                ... 4
SHARK 2-electron RIJ-SOMF                   ... done (  0.2 sec)
SHARK 1-electron  MaxCenter=4               ... done (  0.0 sec)
SHARK 2-electron DoJ,X=0,1 MaxCenter=1      ... done (  0.1 sec)

Maximum memory used throughout the entire SOC-calculation: 11.3 MB
Total time for SOC:  3.942


           ************************************************************
           *        Program running with 4 parallel MPI-processes     *
           *              working on a common directory               *
           ************************************************************
------------------------------------------------------------------------------
                                ORCA EPR/NMR CALCULATION
------------------------------------------------------------------------------

GBWName                      ... /home/rwth0701/scratch/cs681498/orcajob__30556519-cfYJ/16482.gbw
Electron density             ... /home/rwth0701/scratch/cs681498/orcajob__30556519-cfYJ/16482.scfp
Spin density                 ... /home/rwth0701/scratch/cs681498/orcajob__30556519-cfYJ/16482.scfr
Spin-orbit integrals         ... /home/rwth0701/scratch/cs681498/orcajob__30556519-cfYJ/16482
Treatment of gauge           ... GIAO (approximations 1/2el = 0,0)
Details of the CP(SCF) procedure:
       Solver   = POPLE   
       MaxIter  =    64   
       Tolerance=    1.000e-03
       COSX Grid=     1   
       Op-0     =   0-  4 =>   5- 72
       Op-1     =   0-  3 =>   4- 72
Multiplicity                 ... 2
g-tensor                     ... 1
NMR chemical shifts          ... 0
NMR spin-spin couplings      ... 0
NMR spectrum                 ... 0
Number of nuclei for epr/nmr ... 4
   Nucleus:   1H 
       Hyperfine : Isotope=    1 I=   0.500 P= 533.551
       Quadrupole: Isotope=    2 I=   1.000 Q=   0.003
       Spin-Orbit: Zeff=   1.000
       Nuclear Spin-Spin: Gn=   0.000
       EPRNMR Input: 
       rho(0)=N f(grad)=N a(iso)=Y a(dip)=Y a(orb)=Y sigma(nmr)=N spin-spin(nmr)=all-N,DSO-N,PSO-N,FC-N,SD-N
   Nucleus:   2H 
       Hyperfine : Isotope=    1 I=   0.500 P= 533.551
       Quadrupole: Isotope=    2 I=   1.000 Q=   0.003
       Spin-Orbit: Zeff=   1.000
       Nuclear Spin-Spin: Gn=   0.000
       EPRNMR Input: 
       rho(0)=N f(grad)=N a(iso)=Y a(dip)=Y a(orb)=Y sigma(nmr)=N spin-spin(nmr)=all-N,DSO-N,PSO-N,FC-N,SD-N
   Nucleus:   3H 
       Hyperfine : Isotope=    1 I=   0.500 P= 533.551
       Quadrupole: Isotope=    2 I=   1.000 Q=   0.003
       Spin-Orbit: Zeff=   1.000
       Nuclear Spin-Spin: Gn=   0.000
       EPRNMR Input: 
       rho(0)=N f(grad)=N a(iso)=Y a(dip)=Y a(orb)=Y sigma(nmr)=N spin-spin(nmr)=all-N,DSO-N,PSO-N,FC-N,SD-N
   Nucleus:   0C 
       Hyperfine : Isotope=   13 I=   0.500 P= 134.190
       Quadrupole: Isotope=   13 I=   0.500 Q=   0.000
       Spin-Orbit: Zeff=   3.600
       Nuclear Spin-Spin: Gn=   0.000
       EPRNMR Input: 
       rho(0)=N f(grad)=N a(iso)=Y a(dip)=Y a(orb)=Y sigma(nmr)=N spin-spin(nmr)=all-N,DSO-N,PSO-N,FC-N,SD-N
Forming RHS of the CP-SCF equations         ... 
Calculating right hand sides for GIAO treatment        ... 
  Entering RightHandSide GIAO. ScalHFX=    0.2000 NeedHFX=1
     -> 1-electron GIAO integrals will be done analytically
     -> RIJCOSX used in SCF. Same chosen for GIAO calculation.
     Making grid for GIAO integrations   ...

GRID GIAO
---------

General Integration Accuracy     IntAcc      ... 4.388
Radial Grid Type                 RadialGrid  ... OptM3 with GC (2021)
Angular Grid (max. ang.)         AngularGrid ... 4 (Lebedev-302)
Angular grid pruning method      GridPruning ... 4 (adaptive)
Weight generation scheme         WeightScheme... Becke
Basis function cutoff            BFCut       ... 1.0000e-10
Integration weight cutoff        WCut        ... 1.0000e-14
Angular grids for H and He will be reduced by one unit
Partially contracted basis set               ... off
Rotationally invariant grid construction     ... off

Total number of grid points                  ...    17032
Total number of batches                      ...      269
Average number of points per batch           ...       63
Average number of grid points per atom       ...     4258

  One-electron GIAO integrals (SHARK)     ... done
  Calculating G(B)[P]                     ... (RI-J: SHARK-ok) (COSX-ok) (add-J+K:ok) => dG/dB done
  DFT XC-terms                            ... done
  Extracting occupied and virtual blocks  ... 
  Operator  0  NO=   5 NV=  68 
  Operator  1  NO=   4 NV=  69 
  Transforming and RHS contribution       ... done
  Adding eps_i * S(B)_ai terms            ... done
  Projecting overlap derivatives          ... done
  Building G[dS/dB_ij] (COSX)             ... done
  Transforming to MO basis                ... done
  Summing G[dS/dB_ij] into RHS contribs.  ... done

  GIAO profiling information: 
    Total GIAO time               ...       0.8 sec
       GIAO 1-electron integrals  ...       0.0 sec (  0.5%)
       GIAO G(dS/dB) terms        ...       0.1 sec ( 12.8%)
       GIAO RI-J                  ...       0.1 sec ( 13.3%)
       GIAO COSX                  ...       0.1 sec ( 18.3%)
       GIAO XC-terms              ...       0.3 sec ( 35.1%)

  GIAO right hand side done


------------------------------------------------------------------------------
                           ORCA CP-SCF CALCULATION
------------------------------------------------------------------------------

Input orbitals are from        ... /home/rwth0701/scratch/cs681498/orcajob__30556519-cfYJ/16482.gbw
Input Perturbation             ... /home/rwth0701/scratch/cs681498/orcajob__30556519-cfYJ/16482.pin.tmp
Wavefunction output            ... /home/rwth0701/scratch/cs681498/orcajob__30556519-cfYJ/16482.pout.tmp
Perturbation mode              ... Imaginary perturbation
Solver                         ... POPLE
Max. number of iterations      ... 64
Convergence tolerance          ... 1.000e-03
Integral handling              ... Direct
DFT GridXC                     ... 1
COSX GridX                     ... 1
COSX IntAccX                   ... 3.067
COSX Algorithm                 ... Auto
Number of perturbations        ... 3
Number of operators            ... 2
Orbital ranges used for CP-SCF:
 Operator 0:  Orbitals   0...  4  to   5... 72
 Operator 1:  Orbitals   0...  3  to   4... 72
Variables per perturbation     ... 616
DFT calculation                         ... on
XC functional terms                     ... off
Hybrid DFT                              ... on
   Exchange mixing (SCF)                ...  0.200
   Exchange mixing (CP-SCF)             ...  0.200
   GGA exch. scaling(SCF)               ...  0.720
   GGA exch. scaling (CP-SCF)           ...  0.720
   GGA corr. scaling (SCF)              ...  0.810
   GGA corr. scaling (CP-SCF)           ...  0.810

CP-SCF GRID
-----------

General Integration Accuracy     IntAcc      ... 3.467
Radial Grid Type                 RadialGrid  ... OptM3 with GC (2021)
Angular Grid (max. ang.)         AngularGrid ... 1 (Lebedev-50)
Angular grid pruning method      GridPruning ... 4 (adaptive)
Weight generation scheme         WeightScheme... Becke
Basis function cutoff            BFCut       ... 1.0000e-10
Integration weight cutoff        WCut        ... 1.0000e-14
Angular grids for H and He will be reduced by one unit
Partially contracted basis set               ... off
Rotationally invariant grid construction     ... off

Total number of grid points                  ...     2341
Total number of batches                      ...       38
Average number of points per batch           ...       61
Average number of grid points per atom       ...      585

CP-SCF GRIDX
------------

General Integration Accuracy     IntAcc      ... 3.067
Radial Grid Type                 RadialGrid  ... OptM3 with GC (2021)
Angular Grid (max. ang.)         AngularGrid ... 1 (Lebedev-50)
Angular grid pruning method      GridPruning ... 4 (adaptive)
Weight generation scheme         WeightScheme... Becke
Basis function cutoff            BFCut       ... 1.0000e-10
Integration weight cutoff        WCut        ... 1.0000e-14
Angular grids for H and He will be reduced by one unit
Partially contracted basis set               ... on
Rotationally invariant grid construction     ... off

Total number of grid points                  ...     1073
Total number of batches                      ...       20
Average number of points per batch           ...       53
Average number of grid points per atom       ...      268

Memory available               ... 1014.6 MB
Memory needed per perturbation ...   0.4 MB
Perturbations treated per batch... 3
Number of batches              ... 1
     CP-SCF ITERATION   0:   8.6852e+00 (   0.1 sec   0/  3 done)
     CP-SCF ITERATION   1:   7.2979e-02 (   0.1 sec   0/  3 done)
     CP-SCF ITERATION   2:   3.0827e-03 (   0.1 sec   0/  3 done)
     CP-SCF ITERATION   3:   2.8660e-04 (   0.1 sec   3/  3 done)
                    *** THE CP-SCF HAS CONVERGED ***

Forming final perturbed densities           ... done
Transforming perturbed density to AO basis  ... done

Magnetic field perturbation calculated in  1.346 sec
GIAO: Diamagnetic terms      (analytic)     (SHARK) ... done
GIAO: 1el-Paramagnetic terms (analytic)     (SHARK) ... done

-------------------
ELECTRONIC G-MATRIX
-------------------

 The g-matrix: 
              2.0029457    0.0000325    0.0000188
              0.0000242    2.0029076    0.0000544
              0.0000070    0.0000366    2.0022357

 gel          2.0023193    2.0023193    2.0023193
 gRMC        -0.0001259   -0.0001259   -0.0001259
 gDSO(tot)    0.0000342    0.0000711    0.0000714
 gPSO(tot)    0.0000048    0.0006297    0.0006975
             ----------   ----------   ----------
 g(tot)       2.0022324    2.0028942    2.0029623 iso=  2.0026963
 Delta-g     -0.0000868    0.0005749    0.0006431 iso=  0.0003770
 Orientation: 
  X          -0.0154302   -0.4914777   -0.8707534
  Y          -0.0665951    0.8694286   -0.4895498
  Z           0.9976608    0.0504340   -0.0461455

Notes:  (1) The g-matrix conforms to the "BgS" spin Hamiltonian convention. 
        (2) The principal values are square roots of the eigenvalues of g*gT.
        (3) Orientations are eigenvectors of g*gT written as column vectors.
        (4) Individual contributions are projections of the full matrices onto the eigenvectors of g*gT.
        (5) Tensor is right-handed.


-----------------------------------------
ELECTRIC AND MAGNETIC HYPERFINE STRUCTURE
-----------------------------------------

 -----------------------------------------------------------
 Nucleus   1H : A:ISTP=    1 I=  0.5 P=533.5514 MHz/au**3
                Q:ISTP=    2 I=  1.0 Q=  0.0029 barn     
 -----------------------------------------------------------
 Solving for nuclear perturbation:
Forming RHS of the CP-SCF equations         ... 
Calc. nucleus orbit integrals (SHARK)       ... done

------------------------------------------------------------------------------
                           ORCA CP-SCF CALCULATION
------------------------------------------------------------------------------

Input orbitals are from        ... /home/rwth0701/scratch/cs681498/orcajob__30556519-cfYJ/16482.gbw
Input Perturbation             ... /home/rwth0701/scratch/cs681498/orcajob__30556519-cfYJ/16482.pin.tmp
Wavefunction output            ... /home/rwth0701/scratch/cs681498/orcajob__30556519-cfYJ/16482.pout.tmp
Perturbation mode              ... Imaginary perturbation
Solver                         ... POPLE
Max. number of iterations      ... 64
Convergence tolerance          ... 1.000e-03
Integral handling              ... Direct
DFT GridXC                     ... 1
COSX GridX                     ... 1
COSX IntAccX                   ... 3.067
COSX Algorithm                 ... Auto
Number of perturbations        ... 3
Number of operators            ... 2
Orbital ranges used for CP-SCF:
 Operator 0:  Orbitals   0...  4  to   5... 72
 Operator 1:  Orbitals   0...  3  to   4... 72
Variables per perturbation     ... 616
DFT calculation                         ... on
XC functional terms                     ... off
Hybrid DFT                              ... on
   Exchange mixing (SCF)                ...  0.200
   Exchange mixing (CP-SCF)             ...  0.200
   GGA exch. scaling(SCF)               ...  0.720
   GGA exch. scaling (CP-SCF)           ...  0.720
   GGA corr. scaling (SCF)              ...  0.810
   GGA corr. scaling (CP-SCF)           ...  0.810

CP-SCF GRID
-----------

General Integration Accuracy     IntAcc      ... 3.467
Radial Grid Type                 RadialGrid  ... OptM3 with GC (2021)
Angular Grid (max. ang.)         AngularGrid ... 1 (Lebedev-50)
Angular grid pruning method      GridPruning ... 4 (adaptive)
Weight generation scheme         WeightScheme... Becke
Basis function cutoff            BFCut       ... 1.0000e-10
Integration weight cutoff        WCut        ... 1.0000e-14
Angular grids for H and He will be reduced by one unit
Partially contracted basis set               ... off
Rotationally invariant grid construction     ... off

Total number of grid points                  ...     2341
Total number of batches                      ...       38
Average number of points per batch           ...       61
Average number of grid points per atom       ...      585

CP-SCF GRIDX
------------

General Integration Accuracy     IntAcc      ... 3.067
Radial Grid Type                 RadialGrid  ... OptM3 with GC (2021)
Angular Grid (max. ang.)         AngularGrid ... 1 (Lebedev-50)
Angular grid pruning method      GridPruning ... 4 (adaptive)
Weight generation scheme         WeightScheme... Becke
Basis function cutoff            BFCut       ... 1.0000e-10
Integration weight cutoff        WCut        ... 1.0000e-14
Angular grids for H and He will be reduced by one unit
Partially contracted basis set               ... on
Rotationally invariant grid construction     ... off

Total number of grid points                  ...     1073
Total number of batches                      ...       20
Average number of points per batch           ...       53
Average number of grid points per atom       ...      268

Memory available               ... 968.0 MB
Memory needed per perturbation ...   0.4 MB
Perturbations treated per batch... 3
Number of batches              ... 1
     CP-SCF ITERATION   0:   7.1543e-02 (   0.1 sec   0/  3 done)
     CP-SCF ITERATION   1:   2.8106e-03 (   0.1 sec   1/  3 done)
     CP-SCF ITERATION   2:   2.1301e-04 (   0.1 sec   3/  3 done)
                    *** THE CP-SCF HAS CONVERGED ***

Forming final perturbed densities           ... done
Transforming perturbed density to AO basis  ... done

 Raw HFC matrix (all values in MHz): 
 -----------------------------------
               -35.4868              22.8140               2.9336
                22.8153            -100.3932              -2.2930
                 2.9337              -2.2930             -65.0104

 A(FC)         -66.9787             -66.9787             -66.9787
 A(SD)          38.8136               2.0690             -40.8825
 A(ORB+DIA)      0.0160              -0.0007               0.0306    A(PC) =   0.0153
 A(ORB)          0.0108               0.0004               0.0291    A(PC) =   0.0135
 A(DIA)          0.0051              -0.0012               0.0015    A(PC) =   0.0018
             ----------           ----------           ----------
 A(Tot)        -28.1492             -64.9105            -107.8307    A(iso)=  -66.9635
 Orientation: 
  X           0.9525400            0.0329559           -0.3026241
  Y           0.2989894            0.0855408            0.9504147
  Z           0.0572085           -0.9957895            0.0716276

Notes:  (1) The A matrix conforms to the "SAI" spin Hamiltonian convention.
        (2) Tensor is right-handed.

 -----------------------------------------------------------
 Nucleus   2H : A:ISTP=    1 I=  0.5 P=533.5514 MHz/au**3
                Q:ISTP=    2 I=  1.0 Q=  0.0029 barn     
 -----------------------------------------------------------
 Solving for nuclear perturbation:
Forming RHS of the CP-SCF equations         ... 
Calc. nucleus orbit integrals (SHARK)       ... done

------------------------------------------------------------------------------
                           ORCA CP-SCF CALCULATION
------------------------------------------------------------------------------

Input orbitals are from        ... /home/rwth0701/scratch/cs681498/orcajob__30556519-cfYJ/16482.gbw
Input Perturbation             ... /home/rwth0701/scratch/cs681498/orcajob__30556519-cfYJ/16482.pin.tmp
Wavefunction output            ... /home/rwth0701/scratch/cs681498/orcajob__30556519-cfYJ/16482.pout.tmp
Perturbation mode              ... Imaginary perturbation
Solver                         ... POPLE
Max. number of iterations      ... 64
Convergence tolerance          ... 1.000e-03
Integral handling              ... Direct
DFT GridXC                     ... 1
COSX GridX                     ... 1
COSX IntAccX                   ... 3.067
COSX Algorithm                 ... Auto
Number of perturbations        ... 3
Number of operators            ... 2
Orbital ranges used for CP-SCF:
 Operator 0:  Orbitals   0...  4  to   5... 72
 Operator 1:  Orbitals   0...  3  to   4... 72
Variables per perturbation     ... 616
DFT calculation                         ... on
XC functional terms                     ... off
Hybrid DFT                              ... on
   Exchange mixing (SCF)                ...  0.200
   Exchange mixing (CP-SCF)             ...  0.200
   GGA exch. scaling(SCF)               ...  0.720
   GGA exch. scaling (CP-SCF)           ...  0.720
   GGA corr. scaling (SCF)              ...  0.810
   GGA corr. scaling (CP-SCF)           ...  0.810

CP-SCF GRID
-----------

General Integration Accuracy     IntAcc      ... 3.467
Radial Grid Type                 RadialGrid  ... OptM3 with GC (2021)
Angular Grid (max. ang.)         AngularGrid ... 1 (Lebedev-50)
Angular grid pruning method      GridPruning ... 4 (adaptive)
Weight generation scheme         WeightScheme... Becke
Basis function cutoff            BFCut       ... 1.0000e-10
Integration weight cutoff        WCut        ... 1.0000e-14
Angular grids for H and He will be reduced by one unit
Partially contracted basis set               ... off
Rotationally invariant grid construction     ... off

Total number of grid points                  ...     2341
Total number of batches                      ...       38
Average number of points per batch           ...       61
Average number of grid points per atom       ...      585

CP-SCF GRIDX
------------

General Integration Accuracy     IntAcc      ... 3.067
Radial Grid Type                 RadialGrid  ... OptM3 with GC (2021)
Angular Grid (max. ang.)         AngularGrid ... 1 (Lebedev-50)
Angular grid pruning method      GridPruning ... 4 (adaptive)
Weight generation scheme         WeightScheme... Becke
Basis function cutoff            BFCut       ... 1.0000e-10
Integration weight cutoff        WCut        ... 1.0000e-14
Angular grids for H and He will be reduced by one unit
Partially contracted basis set               ... on
Rotationally invariant grid construction     ... off

Total number of grid points                  ...     1073
Total number of batches                      ...       20
Average number of points per batch           ...       53
Average number of grid points per atom       ...      268

Memory available               ... 967.8 MB
Memory needed per perturbation ...   0.4 MB
Perturbations treated per batch... 3
Number of batches              ... 1
     CP-SCF ITERATION   0:   7.1274e-02 (   0.1 sec   0/  3 done)
     CP-SCF ITERATION   1:   2.8567e-03 (   0.1 sec   1/  3 done)
     CP-SCF ITERATION   2:   2.5448e-04 (   0.1 sec   3/  3 done)
                    *** THE CP-SCF HAS CONVERGED ***

Forming final perturbed densities           ... done
Transforming perturbed density to AO basis  ... done

 Raw HFC matrix (all values in MHz): 
 -----------------------------------
               -53.0623             -42.1268              -3.8667
               -42.1257             -74.1606              -2.1305
                -3.8667              -2.1305             -54.8209

 A(FC)         -60.6980             -60.6980             -60.6980
 A(SD)          40.5858               6.1042             -46.6900
 A(ORB+DIA)      0.0151              -0.0007               0.0358    A(PC) =   0.0167
 A(ORB)          0.0091               0.0006               0.0339    A(PC) =   0.0145
 A(DIA)          0.0060              -0.0013               0.0019    A(PC) =   0.0022
             ----------           ----------           ----------
 A(Tot)        -20.0971             -54.5945            -107.3522    A(iso)=  -60.6813
 Orientation: 
  X           0.7887704            0.0077771            0.6146387
  Y          -0.6126309            0.0916811            0.7850338
  Z          -0.0502454           -0.9957581            0.0770798

Notes:  (1) The A matrix conforms to the "SAI" spin Hamiltonian convention.
        (2) Tensor is right-handed.

 -----------------------------------------------------------
 Nucleus   3H : A:ISTP=    1 I=  0.5 P=533.5514 MHz/au**3
                Q:ISTP=    2 I=  1.0 Q=  0.0029 barn     
 -----------------------------------------------------------
 Solving for nuclear perturbation:
Forming RHS of the CP-SCF equations         ... 
Calc. nucleus orbit integrals (SHARK)       ... done

------------------------------------------------------------------------------
                           ORCA CP-SCF CALCULATION
------------------------------------------------------------------------------

Input orbitals are from        ... /home/rwth0701/scratch/cs681498/orcajob__30556519-cfYJ/16482.gbw
Input Perturbation             ... /home/rwth0701/scratch/cs681498/orcajob__30556519-cfYJ/16482.pin.tmp
Wavefunction output            ... /home/rwth0701/scratch/cs681498/orcajob__30556519-cfYJ/16482.pout.tmp
Perturbation mode              ... Imaginary perturbation
Solver                         ... POPLE
Max. number of iterations      ... 64
Convergence tolerance          ... 1.000e-03
Integral handling              ... Direct
DFT GridXC                     ... 1
COSX GridX                     ... 1
COSX IntAccX                   ... 3.067
COSX Algorithm                 ... Auto
Number of perturbations        ... 3
Number of operators            ... 2
Orbital ranges used for CP-SCF:
 Operator 0:  Orbitals   0...  4  to   5... 72
 Operator 1:  Orbitals   0...  3  to   4... 72
Variables per perturbation     ... 616
DFT calculation                         ... on
XC functional terms                     ... off
Hybrid DFT                              ... on
   Exchange mixing (SCF)                ...  0.200
   Exchange mixing (CP-SCF)             ...  0.200
   GGA exch. scaling(SCF)               ...  0.720
   GGA exch. scaling (CP-SCF)           ...  0.720
   GGA corr. scaling (SCF)              ...  0.810
   GGA corr. scaling (CP-SCF)           ...  0.810

CP-SCF GRID
-----------

General Integration Accuracy     IntAcc      ... 3.467
Radial Grid Type                 RadialGrid  ... OptM3 with GC (2021)
Angular Grid (max. ang.)         AngularGrid ... 1 (Lebedev-50)
Angular grid pruning method      GridPruning ... 4 (adaptive)
Weight generation scheme         WeightScheme... Becke
Basis function cutoff            BFCut       ... 1.0000e-10
Integration weight cutoff        WCut        ... 1.0000e-14
Angular grids for H and He will be reduced by one unit
Partially contracted basis set               ... off
Rotationally invariant grid construction     ... off

Total number of grid points                  ...     2341
Total number of batches                      ...       38
Average number of points per batch           ...       61
Average number of grid points per atom       ...      585

CP-SCF GRIDX
------------

General Integration Accuracy     IntAcc      ... 3.067
Radial Grid Type                 RadialGrid  ... OptM3 with GC (2021)
Angular Grid (max. ang.)         AngularGrid ... 1 (Lebedev-50)
Angular grid pruning method      GridPruning ... 4 (adaptive)
Weight generation scheme         WeightScheme... Becke
Basis function cutoff            BFCut       ... 1.0000e-10
Integration weight cutoff        WCut        ... 1.0000e-14
Angular grids for H and He will be reduced by one unit
Partially contracted basis set               ... on
Rotationally invariant grid construction     ... off

Total number of grid points                  ...     1073
Total number of batches                      ...       20
Average number of points per batch           ...       53
Average number of grid points per atom       ...      268

Memory available               ... 967.7 MB
Memory needed per perturbation ...   0.4 MB
Perturbations treated per batch... 3
Number of batches              ... 1
     CP-SCF ITERATION   0:   6.3325e-02 (   0.1 sec   0/  3 done)
     CP-SCF ITERATION   1:   2.3755e-03 (   0.1 sec   1/  3 done)
     CP-SCF ITERATION   2:   1.8395e-04 (   0.1 sec   3/  3 done)
                    *** THE CP-SCF HAS CONVERGED ***

Forming final perturbed densities           ... done
Transforming perturbed density to AO basis  ... done

 Raw HFC matrix (all values in MHz): 
 -----------------------------------
               -94.6525              24.2334               1.1427
                24.2327             -34.4892               2.3059
                 1.1427               2.3060             -62.6598

 A(FC)         -63.9497             -63.9497             -63.9497
 A(SD)          38.1667               1.1162             -39.2829
 A(ORB+DIA)      0.0173              -0.0008               0.0311    A(PC) =   0.0159
 A(ORB)          0.0124               0.0003               0.0297    A(PC) =   0.0141
 A(DIA)          0.0049              -0.0012               0.0014    A(PC) =   0.0017
             ----------           ----------           ----------
 A(Tot)        -25.7657             -62.8344            -103.2015    A(iso)=  -63.9339
 Orientation: 
  X           0.3320761           -0.0157366            0.9431213
  Y           0.9407196           -0.0677007           -0.3323601
  Z           0.0690802            0.9975816           -0.0076780

Notes:  (1) The A matrix conforms to the "SAI" spin Hamiltonian convention.
        (2) Tensor is right-handed.

 -----------------------------------------------------------
 Nucleus   0C : A:ISTP=   13 I=  0.5 P=134.1903 MHz/au**3
                Q:ISTP=   13 I=  0.5 Q=  0.0000 barn     
 -----------------------------------------------------------
 Solving for nuclear perturbation:
Forming RHS of the CP-SCF equations         ... 
Calc. nucleus orbit integrals (SHARK)       ... done

------------------------------------------------------------------------------
                           ORCA CP-SCF CALCULATION
------------------------------------------------------------------------------

Input orbitals are from        ... /home/rwth0701/scratch/cs681498/orcajob__30556519-cfYJ/16482.gbw
Input Perturbation             ... /home/rwth0701/scratch/cs681498/orcajob__30556519-cfYJ/16482.pin.tmp
Wavefunction output            ... /home/rwth0701/scratch/cs681498/orcajob__30556519-cfYJ/16482.pout.tmp
Perturbation mode              ... Imaginary perturbation
Solver                         ... POPLE
Max. number of iterations      ... 64
Convergence tolerance          ... 1.000e-03
Integral handling              ... Direct
DFT GridXC                     ... 1
COSX GridX                     ... 1
COSX IntAccX                   ... 3.067
COSX Algorithm                 ... Auto
Number of perturbations        ... 3
Number of operators            ... 2
Orbital ranges used for CP-SCF:
 Operator 0:  Orbitals   0...  4  to   5... 72
 Operator 1:  Orbitals   0...  3  to   4... 72
Variables per perturbation     ... 616
DFT calculation                         ... on
XC functional terms                     ... off
Hybrid DFT                              ... on
   Exchange mixing (SCF)                ...  0.200
   Exchange mixing (CP-SCF)             ...  0.200
   GGA exch. scaling(SCF)               ...  0.720
   GGA exch. scaling (CP-SCF)           ...  0.720
   GGA corr. scaling (SCF)              ...  0.810
   GGA corr. scaling (CP-SCF)           ...  0.810

CP-SCF GRID
-----------

General Integration Accuracy     IntAcc      ... 3.467
Radial Grid Type                 RadialGrid  ... OptM3 with GC (2021)
Angular Grid (max. ang.)         AngularGrid ... 1 (Lebedev-50)
Angular grid pruning method      GridPruning ... 4 (adaptive)
Weight generation scheme         WeightScheme... Becke
Basis function cutoff            BFCut       ... 1.0000e-10
Integration weight cutoff        WCut        ... 1.0000e-14
Angular grids for H and He will be reduced by one unit
Partially contracted basis set               ... off
Rotationally invariant grid construction     ... off

Total number of grid points                  ...     2341
Total number of batches                      ...       38
Average number of points per batch           ...       61
Average number of grid points per atom       ...      585

CP-SCF GRIDX
------------

General Integration Accuracy     IntAcc      ... 3.067
Radial Grid Type                 RadialGrid  ... OptM3 with GC (2021)
Angular Grid (max. ang.)         AngularGrid ... 1 (Lebedev-50)
Angular grid pruning method      GridPruning ... 4 (adaptive)
Weight generation scheme         WeightScheme... Becke
Basis function cutoff            BFCut       ... 1.0000e-10
Integration weight cutoff        WCut        ... 1.0000e-14
Angular grids for H and He will be reduced by one unit
Partially contracted basis set               ... on
Rotationally invariant grid construction     ... off

Total number of grid points                  ...     1073
Total number of batches                      ...       20
Average number of points per batch           ...       53
Average number of grid points per atom       ...      268

Memory available               ... 967.6 MB
Memory needed per perturbation ...   0.4 MB
Perturbations treated per batch... 3
Number of batches              ... 1
     CP-SCF ITERATION   0:   1.1425e+00 (   0.1 sec   0/  3 done)
     CP-SCF ITERATION   1:   4.4166e-02 (   0.1 sec   0/  3 done)
     CP-SCF ITERATION   2:   3.0163e-03 (   0.1 sec   1/  3 done)
     CP-SCF ITERATION   3:   1.5044e-04 (   0.1 sec   3/  3 done)
                    *** THE CP-SCF HAS CONVERGED ***

Forming final perturbed densities           ... done
Transforming perturbed density to AO basis  ... done

 Raw HFC matrix (all values in MHz): 
 -----------------------------------
                -7.6705               0.4263              -4.8246
                 0.4263              -5.4083             -19.4735
                -4.8245             -19.4735             231.3516

 A(FC)          72.8644              72.8644              72.8644
 A(SD)         -79.7070             -80.4799             160.1869
 A(ORB+DIA)     -0.1553              -0.1538              -0.0112    A(PC) =  -0.1068
 A(ORB)         -0.1557              -0.1543              -0.0111    A(PC) =  -0.1070
 A(DIA)          0.0004               0.0005              -0.0001    A(PC) =   0.0003
             ----------           ----------           ----------
 A(Tot)         -6.9980              -7.7693             233.0401    A(iso)=   72.7576
 Orientation: 
  X           0.0415253            0.9989349            0.0201165
  Y           0.9957508           -0.0430325            0.0814157
  Z           0.0821947            0.0166502           -0.9964772

Notes:  (1) The A matrix conforms to the "SAI" spin Hamiltonian convention.
        (2) Tensor is right-handed.


--------------------------------------------------------------------------------
----------------------------------------------------------------------------
                           ORCA EULER ANGLE PROGRAM
----------------------------------------------------------------------------

Only g-tensor available        -->  using g-tensor as reference tensor

Reference tensor               ...  g

g-tensor ordering              ...  |g_min> --> |gx>
                                    |g_mid> --> |gy>
                                    |g_max> --> |gz>

A- and EFG-tensor ordering     ...  the axes |Ax>, |Qx>, |Ay>, etc. are assigned
                                    such that the Euler rotation is minimal. You
                                    can find the respective eigenvalues as Ax,
                                    EFGx, Ay, etc. in the tables below.
                                    The relation of |Ax>, |Ay>,  etc. to Amin, Amid, etc.
                                    (as printed in the ORCA EPR/NMR CALCULATION Output)
                                    is obtained in the detailed printout.

Euler rotation around          ...  z - y - z
   First rotation              -->  by alpha around z
   Second rotation             -->  by beta around y'
   Third rotation              -->  by gamma around z''
   Positive / Negative angle   -->  clockwise / counterclockwise rotation

Plot EFG-tensors                    (-)
Plot HFC-tensors                    (-)
Detailed Printout                   (-)

-------------------------------------------------------------------------
          Euler rotation of hyperfine tensor to g-tensor
-------------------------------------------------------------------------

-------------------------------------------------------------------
 Atom  |   Alpha    Beta    Gamma   |   Ax       Ay       Az 
       |          [degrees]         |           [MHz]         
-------------------------------------------------------------------
  1H      -83.2     11.9     83.8     -64.91  -107.83   -28.15
  2H       89.2     22.6    -87.7     -54.59   -20.10  -107.35
  3H       89.9     41.2    -89.9     -62.83  -103.20   -25.77
  0C      -88.8     31.8     89.6     233.04    -7.00    -7.77
-------------------------------------------------------------------


Maximum memory used throughout the entire EPRNMR-calculation: 67.6 MB

Timings for individual modules:

Sum of individual times         ...       24.196 sec (=   0.403 min)
GTO integral calculation        ...        4.247 sec (=   0.071 min)  17.6 %
Spin-Orbit-Coupling Matrices    ...        3.932 sec (=   0.066 min)  16.2 %
SCF iterations                  ...        9.628 sec (=   0.160 min)  39.8 %
EPR/NMR calculation             ...        6.389 sec (=   0.106 min)  26.4 %
                             ****ORCA TERMINATED NORMALLY****
TOTAL RUN TIME: 0 days 0 hours 0 minutes 26 seconds 853 msec
