Job execution start: Mon Oct 24 20:42:51 CEST 2022
Shared library path: /home/cs681498/orca:/opt/MPI/openmpi-4.1.1/linux/gcc_4.8.5/lib:/opt/MPI/openmpi-4.1.1/linux/gcc_4.8.5/lib/lib32
Slurm Job ID is: 30556435
Slurm Job name is: 13210
nrm105

                                 *****************
                                 * O   R   C   A *
                                 *****************

                                            #,                                       
                                            ###                                      
                                            ####                                     
                                            #####                                    
                                            ######                                   
                                           ########,                                 
                                     ,,################,,,,,                         
                               ,,#################################,,                 
                          ,,##########################################,,             
                       ,#########################################, ''#####,          
                    ,#############################################,,   '####,        
                  ,##################################################,,,,####,       
                ,###########''''           ''''###############################       
              ,#####''   ,,,,##########,,,,          '''####'''          '####       
            ,##' ,,,,###########################,,,                        '##       
           ' ,,###''''                  '''############,,,                           
         ,,##''                                '''############,,,,        ,,,,,,###''
      ,#''                                            '''#######################'''  
     '                                                          ''''####''''         
             ,#######,   #######,   ,#######,      ##                                
            ,#'     '#,  ##    ##  ,#'     '#,    #''#        ######   ,####,        
            ##       ##  ##   ,#'  ##            #'  '#       #        #'  '#        
            ##       ##  #######   ##           ,######,      #####,   #    #        
            '#,     ,#'  ##    ##  '#,     ,#' ,#      #,         ##   #,  ,#        
             '#######'   ##     ##  '#######'  #'      '#     #####' # '####'        



                  #######################################################
                  #                        -***-                        #
                  #          Department of theory and spectroscopy      #
                  #    Directorship and core code : Frank Neese         #
                  #        Max Planck Institute fuer Kohlenforschung    #
                  #                Kaiser Wilhelm Platz 1               #
                  #                 D-45470 Muelheim/Ruhr               #
                  #                      Germany                        #
                  #                                                     #
                  #                  All rights reserved                #
                  #                        -***-                        #
                  #######################################################


                         Program Version 5.0.3 -  RELEASE  -


 With contributions from (in alphabetic order):
   Daniel Aravena         : Magnetic Suceptibility
   Michael Atanasov       : Ab Initio Ligand Field Theory (pilot matlab implementation)
   Alexander A. Auer      : GIAO ZORA, VPT2 properties, NMR spectrum
   Ute Becker             : Parallelization
   Giovanni Bistoni       : ED, misc. LED, open-shell LED, HFLD
   Martin Brehm           : Molecular dynamics
   Dmytro Bykov           : SCF Hessian
   Vijay G. Chilkuri      : MRCI spin determinant printing, contributions to CSF-ICE
   Dipayan Datta          : RHF DLPNO-CCSD density
   Achintya Kumar Dutta   : EOM-CC, STEOM-CC
   Dmitry Ganyushin       : Spin-Orbit,Spin-Spin,Magnetic field MRCI
   Miquel Garcia          : C-PCM and meta-GGA Hessian, CC/C-PCM, Gaussian charge scheme
   Yang Guo               : DLPNO-NEVPT2, F12-NEVPT2, CIM, IAO-localization
   Andreas Hansen         : Spin unrestricted coupled pair/coupled cluster methods
   Benjamin Helmich-Paris : MC-RPA, TRAH-SCF, COSX integrals
   Lee Huntington         : MR-EOM, pCC
   Robert Izsak           : Overlap fitted RIJCOSX, COSX-SCS-MP3, EOM
   Marcus Kettner         : VPT2
   Christian Kollmar      : KDIIS, OOCD, Brueckner-CCSD(T), CCSD density, CASPT2, CASPT2-K
   Simone Kossmann        : Meta GGA functionals, TD-DFT gradient, OOMP2, MP2 Hessian
   Martin Krupicka        : Initial AUTO-CI
   Lucas Lang             : DCDCAS
   Marvin Lechner         : AUTO-CI (C++ implementation), FIC-MRCC
   Dagmar Lenk            : GEPOL surface, SMD
   Dimitrios Liakos       : Extrapolation schemes; Compound Job, initial MDCI parallelization
   Dimitrios Manganas     : Further ROCIS development; embedding schemes
   Dimitrios Pantazis     : SARC Basis sets
   Anastasios Papadopoulos: AUTO-CI, single reference methods and gradients
   Taras Petrenko         : DFT Hessian,TD-DFT gradient, ASA, ECA, R-Raman, ABS, FL, XAS/XES, NRVS
   Peter Pinski           : DLPNO-MP2, DLPNO-MP2 Gradient
   Christoph Reimann      : Effective Core Potentials
   Marius Retegan         : Local ZFS, SOC
   Christoph Riplinger    : Optimizer, TS searches, QM/MM, DLPNO-CCSD(T), (RO)-DLPNO pert. Triples
   Tobias Risthaus        : Range-separated hybrids, TD-DFT gradient, RPA, STAB
   Michael Roemelt        : Original ROCIS implementation
   Masaaki Saitow         : Open-shell DLPNO-CCSD energy and density
   Barbara Sandhoefer     : DKH picture change effects
   Avijit Sen             : IP-ROCIS
   Kantharuban Sivalingam : CASSCF convergence, NEVPT2, FIC-MRCI
   Bernardo de Souza      : ESD, SOC TD-DFT
   Georgi Stoychev        : AutoAux, RI-MP2 NMR, DLPNO-MP2 response
   Willem Van den Heuvel  : Paramagnetic NMR
   Boris Wezisla          : Elementary symmetry handling
   Frank Wennmohs         : Technical directorship


 We gratefully acknowledge several colleagues who have allowed us to
 interface, adapt or use parts of their codes:
   Stefan Grimme, W. Hujo, H. Kruse, P. Pracht,  : VdW corrections, initial TS optimization,
                  C. Bannwarth, S. Ehlert          DFT functionals, gCP, sTDA/sTD-DF
   Ed Valeev, F. Pavosevic, A. Kumar             : LibInt (2-el integral package), F12 methods
   Garnet Chan, S. Sharma, J. Yang, R. Olivares  : DMRG
   Ulf Ekstrom                                   : XCFun DFT Library
   Mihaly Kallay                                 : mrcc  (arbitrary order and MRCC methods)
   Jiri Pittner, Ondrej Demel                    : Mk-CCSD
   Frank Weinhold                                : gennbo (NPA and NBO analysis)
   Christopher J. Cramer and Donald G. Truhlar   : smd solvation model
   Lars Goerigk                                  : TD-DFT with DH, B97 family of functionals
   V. Asgeirsson, H. Jonsson                     : NEB implementation
   FAccTs GmbH                                   : IRC, NEB, NEB-TS, DLPNO-Multilevel, CI-OPT
                                                   MM, QMMM, 2- and 3-layer-ONIOM, Crystal-QMMM,
                                                   LR-CPCM, SF, NACMEs, symmetry and pop. for TD-DFT,
                                                   nearIR, NL-DFT gradient (VV10), updates on ESD,
                                                   ML-optimized integration grids
   S Lehtola, MJT Oliveira, MAL Marques          : LibXC Library
   Liviu Ungur et al                             : ANISO software


 Your calculation uses the libint2 library for the computation of 2-el integrals
 For citations please refer to: http://libint.valeyev.net

 Your ORCA version has been built with support for libXC version: 5.1.0
 For citations please refer to: https://tddft.org/programs/libxc/

 This ORCA versions uses:
   CBLAS   interface :  Fast vector & matrix operations
   LAPACKE interface :  Fast linear algebra routines
   SCALAPACK package :  Parallel linear algebra routines
   Shared memory     :  Shared parallel matrices
   BLAS/LAPACK       :  OpenBLAS 0.3.15  USE64BITINT DYNAMIC_ARCH NO_AFFINITY SkylakeX SINGLE_THREADED
        Core in use  :  SkylakeX
   Copyright (c) 2011-2014, The OpenBLAS Project


================================================================================

----- Orbital basis set information -----
Your calculation utilizes the basis: EPR-III
   V. Barone, in Recent Advances in Density Functional Methods, Part 1 (ed. D. P. Chong), World Scientific, Singapore, 1995, p. 287.
   N. Rega, M. Cossi and V. Barone, J. Chem. Phys. 105, 11060 (1996).

----- AuxJ basis set information -----
Your calculation utilizes the AutoAux generation procedure.
  G. L. Stoychev, A. A. Auer, F. Neese, J. Chem. Theory Comput. 13, 554 (2017)

----- AuxC basis set information -----
Your calculation utilizes the AutoAux generation procedure.
  G. L. Stoychev, A. A. Auer, F. Neese, J. Chem. Theory Comput. 13, 554 (2017)

----- AuxJK basis set information -----
Your calculation utilizes the AutoAux generation procedure.
  G. L. Stoychev, A. A. Auer, F. Neese, J. Chem. Theory Comput. 13, 554 (2017)

================================================================================
                                        WARNINGS
                       Please study these warnings very carefully!
================================================================================


WARNING: your system is open-shell and RHF/RKS was chosen
  ===> : WILL SWITCH to UHF/UKS


INFO   : the flag for use of the SHARK integral package has been found!

================================================================================
                                       INPUT FILE
================================================================================
NAME = /home/rwth0701/scratch/cs681498/orcajob__30556435-Qic0/13210.inp
|  1> !B3LYP EPR-III Autoaux
|  2> !PAL4
|  3> 
|  4> * xyz 0 2
|  5>  C    -58.1581362249    -80.2848452584    -25.2230201944
|  6>  H    -57.6171938888    -79.3279085824    -25.1617366449
|  7>  H    -59.2556542974    -80.2925606252    -25.2003588773
|  8>  H    -57.5162726560    -81.1620471219    -25.2738880781
|  9> *
| 10> 
| 11> %EPRNMR
| 12>         GTENSOR   TRUE
| 13>         NUCLEI    = ALL H {AISO, ADIP, AORB}
| 14>         NUCLEI    = ALL C {AISO, ADIP, AORB}
| 15> END
| 16> 
| 17> 
| 18>                          ****END OF INPUT****
================================================================================

                       ****************************
                       * Single Point Calculation *
                       ****************************

---------------------------------
CARTESIAN COORDINATES (ANGSTROEM)
---------------------------------
  C    -58.158136  -80.284845  -25.223020
  H    -57.617194  -79.327909  -25.161737
  H    -59.255654  -80.292561  -25.200359
  H    -57.516273  -81.162047  -25.273888

----------------------------
CARTESIAN COORDINATES (A.U.)
----------------------------
  NO LB      ZA    FRAG     MASS         X           Y           Z
   0 C     6.0000    0    12.011  -109.902950  -151.716370  -47.664600
   1 H     1.0000    0     1.008  -108.880717  -149.908022  -47.548791
   2 H     1.0000    0     1.008  -111.976959  -151.730950  -47.621777
   3 H     1.0000    0     1.008  -108.690004  -153.374042  -47.760727

--------------------------------
INTERNAL COORDINATES (ANGSTROEM)
--------------------------------
 C      0   0   0     0.000000000000     0.00000000     0.00000000
 H      1   0   0     1.100955079147     0.00000000     0.00000000
 H      1   2   0     1.097779113320   119.74772584     0.00000000
 H      1   2   3     1.088144977474   114.42280673   181.69567322

---------------------------
INTERNAL COORDINATES (A.U.)
---------------------------
 C      0   0   0     0.000000000000     0.00000000     0.00000000
 H      1   0   0     2.080503585337     0.00000000     0.00000000
 H      1   2   0     2.074501879714   119.74772584     0.00000000
 H      1   2   3     2.056296001427   114.42280673   181.69567322

---------------------
BASIS SET INFORMATION
---------------------
There are 2 groups of distinct atoms

 Group   1 Type C   : 12s8p2d1f contracted to 8s5p2d1f pattern {51111111/41111/11/1}
 Group   2 Type H   : 7s2p contracted to 5s2p pattern {31111/11}

Atom   0C    basis set group =>   1
Atom   1H    basis set group =>   2
Atom   2H    basis set group =>   2
Atom   3H    basis set group =>   2
---------------------------------
AUXILIARY/J BASIS SET INFORMATION
---------------------------------
There are 2 groups of distinct atoms

 Group   1 Type C   : 20s17p16d8f3g contracted to 20s17p16d8f3g pattern {11111111111111111111/11111111111111111/1111111111111111/11111111/111}
 Group   2 Type H   : 17s7p3d contracted to 17s7p3d pattern {11111111111111111/1111111/111}

Atom   0C    basis set group =>   1
Atom   1H    basis set group =>   2
Atom   2H    basis set group =>   2
Atom   3H    basis set group =>   2
---------------------------------
AUXILIARY/C BASIS SET INFORMATION
---------------------------------
There are 2 groups of distinct atoms

 Group   1 Type C   : 20s17p16d8f3g contracted to 20s17p16d8f3g pattern {11111111111111111111/11111111111111111/1111111111111111/11111111/111}
 Group   2 Type H   : 17s7p3d contracted to 17s7p3d pattern {11111111111111111/1111111/111}

Atom   0C    basis set group =>   1
Atom   1H    basis set group =>   2
Atom   2H    basis set group =>   2
Atom   3H    basis set group =>   2
----------------------------------
AUXILIARY/JK BASIS SET INFORMATION
----------------------------------
There are 2 groups of distinct atoms

 Group   1 Type C   : 20s17p16d8f3g contracted to 20s17p16d8f3g pattern {11111111111111111111/11111111111111111/1111111111111111/11111111/111}
 Group   2 Type H   : 17s7p3d contracted to 17s7p3d pattern {11111111111111111/1111111/111}

Atom   0C    basis set group =>   1
Atom   1H    basis set group =>   2
Atom   2H    basis set group =>   2
Atom   3H    basis set group =>   2


           ************************************************************
           *        Program running with 4 parallel MPI-processes     *
           *              working on a common directory               *
           ************************************************************
------------------------------------------------------------------------------
                           ORCA GTO INTEGRAL CALCULATION
                           -- RI-GTO INTEGRALS CHOSEN --
------------------------------------------------------------------------------
------------------------------------------------------------------------------
                   ___                                                        
                  /   \      - P O W E R E D   B Y -                         
                 /     \                                                     
                 |  |  |   _    _      __       _____    __    __             
                 |  |  |  | |  | |    /  \     |  _  \  |  |  /  |          
                  \  \/   | |  | |   /    \    | | | |  |  | /  /          
                 / \  \   | |__| |  /  /\  \   | |_| |  |  |/  /          
                |  |  |   |  __  | /  /__\  \  |    /   |      \           
                |  |  |   | |  | | |   __   |  |    \   |  |\   \          
                \     /   | |  | | |  |  |  |  | |\  \  |  | \   \       
                 \___/    |_|  |_| |__|  |__|  |_| \__\ |__|  \__/        
                                                                              
                      - O R C A' S   B I G   F R I E N D -                    
                                      &                                       
                       - I N T E G R A L  F E E D E R -                       
                                                                              
 v1 FN, 2020, v2 2021                                                         
------------------------------------------------------------------------------


Reading SHARK input file /home/rwth0701/scratch/cs681498/orcajob__30556435-Qic0/13210.SHARKINP.tmp ... ok
----------------------
SHARK INTEGRAL PACKAGE
----------------------

Number of atoms                             ...      4
Number of basis functions                   ...     73
Number of shells                            ...     37
Maximum angular momentum                    ...      3
Integral batch strategy                     ... SHARK/LIBINT Hybrid
RI-J (if used) integral strategy            ... SPLIT-RIJ (Revised 2003 algorithm where possible)
Printlevel                                  ...      1
Contraction scheme used                     ... SEGMENTED contraction
Coulomb Range Separation                    ... NOT USED
Exchange Range Separation                   ... NOT USED
Finite Nucleus Model                        ... NOT USED
Auxiliary Coulomb fitting basis             ... AVAILABLE
   # of basis functions in Aux-J            ...    393
   # of shells in Aux-J                     ...    145
   Maximum angular momentum in Aux-J        ...      4
Auxiliary J/K fitting basis                 ... AVAILABLE
   # of basis functions in Aux-JK           ...    393
   # of shells in Aux-JK                    ...    145
   Maximum angular momentum in Aux-JK       ...      4
Auxiliary Correlation fitting basis         ... AVAILABLE
   # of basis functions in Aux-C            ...    393
   # of shells in Aux-C                     ...    145
   Maximum angular momentum in Aux-C        ...      4
Auxiliary 'external' fitting basis          ... NOT available
Integral threshold                          ...     1.000000e-10
Primitive cut-off                           ...     1.000000e-11
Primitive pair pre-selection threshold      ...     1.000000e-11

Calculating pre-screening integrals         ... done (  0.0 sec) Dimension = 37
Organizing shell pair data                  ... done (  0.0 sec)
Shell pair information
Total number of shell pairs                 ...       703
Shell pairs after pre-screening             ...       688
Total number of primitive shell pairs       ...      1300
Primitive shell pairs kept                  ...      1183
          la=0 lb=0:    261 shell pairs
          la=1 lb=0:    253 shell pairs
          la=1 lb=1:     66 shell pairs
          la=2 lb=0:     46 shell pairs
          la=2 lb=1:     22 shell pairs
          la=2 lb=2:      3 shell pairs
          la=3 lb=0:     23 shell pairs
          la=3 lb=1:     11 shell pairs
          la=3 lb=2:      2 shell pairs
          la=3 lb=3:      1 shell pairs

Calculating one electron integrals          ... done (  0.0 sec)
Calculating RI/J V-Matrix + Cholesky decomp.... done (  0.1 sec)
Calculating RI/JK V-Matrix + Cholesky decomp... done (  0.1 sec)
Calculating RI/C V-Matrix + Cholesky decomp.... done (  0.1 sec)
Calculating Nuclear repulsion               ... done (  0.0 sec) ENN=      9.531782629202 Eh

SHARK setup successfully completed in   0.4 seconds

Maximum memory used throughout the entire GTOINT-calculation: 13.7 MB


           ************************************************************
           *        Program running with 4 parallel MPI-processes     *
           *              working on a common directory               *
           ************************************************************
-------------------------------------------------------------------------------
                                 ORCA SCF
-------------------------------------------------------------------------------

------------
SCF SETTINGS
------------
Hamiltonian:
 Density Functional     Method          .... DFT(GTOs)
 Exchange Functional    Exchange        .... B88
   X-Alpha parameter    XAlpha          ....  0.666667
   Becke's b parameter  XBeta           ....  0.004200
 Correlation Functional Correlation     .... LYP
 LDA part of GGA corr.  LDAOpt          .... VWN-5
 Gradients option       PostSCFGGA      .... off
 Hybrid DFT is turned on
   Fraction HF Exchange ScalHFX         ....  0.200000
   Scaling of DF-GGA-X  ScalDFX         ....  0.720000
   Scaling of DF-GGA-C  ScalDFC         ....  0.810000
   Scaling of DF-LDA-C  ScalLDAC        ....  1.000000
   Perturbative correction              ....  0.000000
   Density functional embedding theory  .... OFF
   NL short-range parameter             ....  4.800000
 RI-approximation to the Coulomb term is turned on
   Number of AuxJ basis functions       .... 393
   RIJ-COSX (HFX calculated with COS-X)).... on


General Settings:
 Integral files         IntName         .... /home/rwth0701/scratch/cs681498/orcajob__30556435-Qic0/13210
 Hartree-Fock type      HFTyp           .... UHF
 Total Charge           Charge          ....    0
 Multiplicity           Mult            ....    2
 Number of Electrons    NEL             ....    9
 Basis Dimension        Dim             ....   73
 Nuclear Repulsion      ENuc            ....      9.5317826292 Eh

Convergence Acceleration:
 DIIS                   CNVDIIS         .... on
   Start iteration      DIISMaxIt       ....    12
   Startup error        DIISStart       ....  0.200000
   # of expansion vecs  DIISMaxEq       ....     5
   Bias factor          DIISBfac        ....   1.050
   Max. coefficient     DIISMaxC        ....  10.000
 Trust-Rad. Augm. Hess. CNVTRAH         .... auto
   Auto Start mean grad. ratio tolernc. ....  1.125000
   Auto Start start iteration           ....    20
   Auto Start num. interpolation iter.  ....    10
   Max. Number of Micro iterations      ....    16
   Max. Number of Macro iterations      .... Maxiter - #DIIS iter
   Number of Davidson start vectors     ....     2
   Converg. threshold I  (grad. norm)   ....   5.000e-05
   Converg. threshold II (energy diff.) ....   1.000e-06
   Grad. Scal. Fac. for Micro threshold ....   0.100
   Minimum threshold for Micro iter.    ....   0.010
   NR start threshold (gradient norm)   ....   0.001
   Initial trust radius                 ....   0.400
   Minimum AH scaling param. (alpha)    ....   1.000
   Maximum AH scaling param. (alpha)    .... 1000.000
   Orbital update algorithm             .... Taylor
   White noise on init. David. guess    .... on
   Maximum white noise                  ....   0.010
   Quad. conv. algorithm                .... NR
 SOSCF                  CNVSOSCF        .... off
 Level Shifting         CNVShift        .... on
   Level shift para.    LevelShift      ....    0.2500
   Turn off err/grad.   ShiftErr        ....    0.0010
 Zerner damping         CNVZerner       .... off
 Static damping         CNVDamp         .... on
   Fraction old density DampFac         ....    0.7000
   Max. Damping (<1)    DampMax         ....    0.9800
   Min. Damping (>=0)   DampMin         ....    0.0000
   Turn off err/grad.   DampErr         ....    0.1000
 Fernandez-Rico         CNVRico         .... off

SCF Procedure:
 Maximum # iterations   MaxIter         ....   125
 SCF integral mode      SCFMode         .... Direct
   Integral package                     .... SHARK and LIBINT hybrid scheme
 Reset frequency        DirectResetFreq ....    20
 Integral Threshold     Thresh          ....  1.000e-10 Eh
 Primitive CutOff       TCut            ....  1.000e-11 Eh

Convergence Tolerance:
 Convergence Check Mode ConvCheckMode   .... Total+1el-Energy
 Convergence forced     ConvForced      .... 0
 Energy Change          TolE            ....  1.000e-06 Eh
 1-El. energy change                    ....  1.000e-03 Eh
 DIIS Error             TolErr          ....  1.000e-06


Diagonalization of the overlap matrix:
Smallest eigenvalue                        ... 1.669e-03
Time for diagonalization                   ...    0.001 sec
Threshold for overlap eigenvalues          ... 1.000e-08
Number of eigenvalues below threshold      ... 0
Time for construction of square roots      ...    0.011 sec
Total time needed                          ...    0.012 sec

Time for model grid setup =    0.036 sec

------------------------------
INITIAL GUESS: MODEL POTENTIAL
------------------------------
Loading Hartree-Fock densities                     ... done
Calculating cut-offs                               ... done
Initializing the effective Hamiltonian             ... done
Setting up the integral package (SHARK)            ... done
Starting the Coulomb interaction                   ... done (   0.0 sec)
Reading the grid                                   ... done
Mapping shells                                     ... done
Starting the XC term evaluation                    ... done (   0.0 sec)
  promolecular density results
     # of electrons  =      8.998465785
     EX              =     -5.963439085
     EC              =     -0.259806036
     EX+EC           =     -6.223245121
Transforming the Hamiltonian                       ... done (   0.0 sec)
Diagonalizing the Hamiltonian                      ... done (   0.0 sec)
Back transforming the eigenvectors                 ... done (   0.0 sec)
Now organizing SCF variables                       ... done
                      ------------------
                      INITIAL GUESS DONE (   0.1 sec)
                      ------------------
-------------------
DFT GRID GENERATION
-------------------

General Integration Accuracy     IntAcc      ... 4.388
Radial Grid Type                 RadialGrid  ... OptM3 with GC (2021)
Angular Grid (max. ang.)         AngularGrid ... 4 (Lebedev-302)
Angular grid pruning method      GridPruning ... 4 (adaptive)
Weight generation scheme         WeightScheme... Becke
Basis function cutoff            BFCut       ... 1.0000e-10
Integration weight cutoff        WCut        ... 1.0000e-14
Angular grids for H and He will be reduced by one unit
Partially contracted basis set               ... off
Rotationally invariant grid construction     ... off

Total number of grid points                  ...    17030
Total number of batches                      ...      268
Average number of points per batch           ...       63
Average number of grid points per atom       ...     4258
Time for grid setup =    0.129 sec

--------------------
COSX GRID GENERATION
--------------------

GRIDX 1
-------
General Integration Accuracy     IntAcc      ... 3.816
Radial Grid Type                 RadialGrid  ... OptM3 with GC (2021)
Angular Grid (max. ang.)         AngularGrid ... 1 (Lebedev-50)
Angular grid pruning method      GridPruning ... 4 (adaptive)
Weight generation scheme         WeightScheme... Becke
Basis function cutoff            BFCut       ... 1.0000e-10
Integration weight cutoff        WCut        ... 1.0000e-14
Angular grids for H and He will be reduced by one unit
Partially contracted basis set               ... on
Rotationally invariant grid construction     ... off

Total number of grid points                  ...     2139
Total number of batches                      ...       35
Average number of points per batch           ...       61
Average number of grid points per atom       ...      535
UseSFitting                                  ... on

GRIDX 2
-------
General Integration Accuracy     IntAcc      ... 4.020
Radial Grid Type                 RadialGrid  ... OptM3 with GC (2021)
Angular Grid (max. ang.)         AngularGrid ... 2 (Lebedev-110)
Angular grid pruning method      GridPruning ... 4 (adaptive)
Weight generation scheme         WeightScheme... Becke
Basis function cutoff            BFCut       ... 1.0000e-10
Integration weight cutoff        WCut        ... 1.0000e-14
Angular grids for H and He will be reduced by one unit
Partially contracted basis set               ... on
Rotationally invariant grid construction     ... off

Total number of grid points                  ...     5038
Total number of batches                      ...       80
Average number of points per batch           ...       62
Average number of grid points per atom       ...     1260
UseSFitting                                  ... on

GRIDX 3
-------
General Integration Accuracy     IntAcc      ... 4.338
Radial Grid Type                 RadialGrid  ... OptM3 with GC (2021)
Angular Grid (max. ang.)         AngularGrid ... 3 (Lebedev-194)
Angular grid pruning method      GridPruning ... 4 (adaptive)
Weight generation scheme         WeightScheme... Becke
Basis function cutoff            BFCut       ... 1.0000e-10
Integration weight cutoff        WCut        ... 1.0000e-14
Angular grids for H and He will be reduced by one unit
Partially contracted basis set               ... on
Rotationally invariant grid construction     ... off

Total number of grid points                  ...    11739
Total number of batches                      ...      185
Average number of points per batch           ...       63
Average number of grid points per atom       ...     2935
UseSFitting                                  ... on

Time for X-Grid setup             =    0.261 sec

--------------
SCF ITERATIONS
--------------
ITER       Energy         Delta-E        Max-DP      RMS-DP      [F,P]     Damp
               ***  Starting incremental Fock matrix formation  ***
  0    -39.7877821630   0.000000000000 0.01480525  0.00048761  0.0878666 0.7000
  1    -39.8054844016  -0.017702238566 0.00926286  0.00036451  0.0462709 0.7000
                               ***Turning on DIIS***
  2    -39.8133042197  -0.007819818162 0.01626739  0.00063592  0.0187792 0.0000
  3    -39.8240126886  -0.010708468868 0.00850064  0.00027551  0.0277373 0.0000
  4    -39.8272965984  -0.003283909848 0.00298904  0.00007719  0.0057125 0.0000
  5    -39.8274292094  -0.000132610945 0.00107126  0.00003259  0.0019091 0.0000
  6    -39.8274464584  -0.000017249059 0.00089848  0.00002529  0.0008165 0.0000
               *** Restarting incremental Fock matrix formation ***
                                   *** Resetting DIIS ***
  7    -39.8274500063  -0.000003547820 0.00008972  0.00000300  0.0000908 0.0000
                 **** Energy Check signals convergence ****

               *****************************************************
               *                     SUCCESS                       *
               *           SCF CONVERGED AFTER   8 CYCLES          *
               *****************************************************

Old exchange energy                            =     -1.237636020 Eh
New exchange energy                            =     -1.237633885 Eh
Exchange energy change after final integration =      0.000002135 Eh
Total energy after final integration           =    -39.827447940 Eh
Final COS-X integration done in                =     0.185 sec

----------------
TOTAL SCF ENERGY
----------------

Total Energy       :          -39.82744794 Eh           -1083.75996 eV

Components:
Nuclear Repulsion  :            9.53178263 Eh             259.37299 eV
Electronic Energy  :          -49.35923057 Eh           -1343.13295 eV
One Electron Energy:          -71.38978846 Eh           -1942.61490 eV
Two Electron Energy:           22.03055789 Eh             599.48196 eV
Max COSX asymmetry :            0.00000008 Eh               0.00000 eV

Virial components:
Potential Energy   :          -79.38556225 Eh           -2160.19097 eV
Kinetic Energy     :           39.55811431 Eh            1076.43101 eV
Virial Ratio       :            2.00680856


DFT components:
N(Alpha)           :        4.999999730382 electrons
N(Beta)            :        4.000000323456 electrons
N(Total)           :        9.000000053837 electrons
E(X)               :       -4.899593498642 Eh       
E(C)               :       -0.308900105157 Eh       
E(XC)              :       -5.208493603799 Eh       
DFET-embed. en.    :        0.000000000000 Eh       

---------------
SCF CONVERGENCE
---------------

  Last Energy change         ...   -6.9018e-08  Tolerance :   1.0000e-06
  Last MAX-Density change    ...    0.0000e+00  Tolerance :   1.0000e-05
  Last RMS-Density change    ...    0.0000e+00  Tolerance :   1.0000e-06
  Last DIIS Error            ...    6.6390e-05  Tolerance :   1.0000e-06

             **** THE GBW FILE WAS UPDATED (/home/rwth0701/scratch/cs681498/orcajob__30556435-Qic0/13210.gbw) ****
             **** DENSITY /home/rwth0701/scratch/cs681498/orcajob__30556435-Qic0/13210.scfp WAS UPDATED ****
             **** ENERGY FILE WAS UPDATED (/home/rwth0701/scratch/cs681498/orcajob__30556435-Qic0/13210.en.tmp) ****
----------------------
UHF SPIN CONTAMINATION
----------------------

Warning: in a DFT calculation there is little theoretical justification to 
         calculate <S**2> as in Hartree-Fock theory. We will do it anyways
         but you should keep in mind that the values have only limited relevance

Expectation value of <S**2>     :     0.753787
Ideal value S*(S+1) for S=0.5   :     0.750000
Deviation                       :     0.003787

             **** THE GBW FILE WAS UPDATED (/home/rwth0701/scratch/cs681498/orcajob__30556435-Qic0/13210.gbw) ****
             **** DENSITY /home/rwth0701/scratch/cs681498/orcajob__30556435-Qic0/13210.scfp WAS UPDATED ****
----------------
ORBITAL ENERGIES
----------------
                 SPIN UP ORBITALS
  NO   OCC          E(Eh)            E(eV) 
   0   1.0000     -10.188849      -277.2527 
   1   1.0000      -0.683409       -18.5965 
   2   1.0000      -0.428666       -11.6646 
   3   1.0000      -0.410087       -11.1590 
   4   1.0000      -0.234746        -6.3878 
   5   0.0000       0.000478         0.0130 
   6   0.0000       0.035634         0.9697 
   7   0.0000       0.037773         1.0278 
   8   0.0000       0.047421         1.2904 
   9   0.0000       0.086107         2.3431 
  10   0.0000       0.090076         2.4511 
  11   0.0000       0.095363         2.5950 
  12   0.0000       0.221182         6.0187 
  13   0.0000       0.225098         6.1252 
  14   0.0000       0.247305         6.7295 
  15   0.0000       0.275947         7.5089 
  16   0.0000       0.296513         8.0685 
  17   0.0000       0.310528         8.4499 
  18   0.0000       0.335552         9.1308 
  19   0.0000       0.550748        14.9866 
  20   0.0000       0.562462        15.3054 
  21   0.0000       0.738776        20.1031 
  22   0.0000       0.747377        20.3372 
  23   0.0000       0.769736        20.9456 
  24   0.0000       0.826126        22.4800 
  25   0.0000       0.873889        23.7797 
  26   0.0000       0.895397        24.3650 
  27   0.0000       0.938932        25.5496 
  28   0.0000       0.954517        25.9737 
  29   0.0000       1.057437        28.7743 
  30   0.0000       1.068438        29.0737 
  31   0.0000       1.106968        30.1221 
  32   0.0000       1.162087        31.6220 
  33   0.0000       1.164387        31.6846 
  34   0.0000       1.453456        39.5505 
  35   0.0000       1.471421        40.0394 
  36   0.0000       1.492742        40.6196 
  37   0.0000       1.704602        46.3846 
  38   0.0000       1.726251        46.9737 
  39   0.0000       1.736118        47.2422 
  40   0.0000       2.720476        74.0279 
  41   0.0000       2.730342        74.2964 
  42   0.0000       2.886940        78.5576 
  43   0.0000       2.891533        78.6826 
  44   0.0000       2.931713        79.7760 
  45   0.0000       2.963995        80.6544 
  46   0.0000       2.979707        81.0819 
  47   0.0000       3.157965        85.9326 
  48   0.0000       3.165320        86.1327 
  49   0.0000       3.250665        88.4551 
  50   0.0000       3.253894        88.5429 
  51   0.0000       3.715200       101.0957 
  52   0.0000       3.729519       101.4854 
  53   0.0000       3.796975       103.3209 
  54   0.0000       3.876634       105.4886 
  55   0.0000       3.959920       107.7549 
  56   0.0000       4.016679       109.2994 
  57   0.0000       4.104750       111.6959 
  58   0.0000       4.122238       112.1718 
  59   0.0000       4.123960       112.2187 
  60   0.0000       4.609867       125.4409 
  61   0.0000       5.005710       136.2123 
  62   0.0000       5.323186       144.8512 
  63   0.0000       5.373942       146.2324 
  64   0.0000       5.504782       149.7927 
  65   0.0000       6.073409       165.2659 
  66   0.0000       6.108796       166.2288 
  67   0.0000       7.694880       209.3883 
  68   0.0000      29.047187       790.4141 
  69   0.0000      37.094063      1009.3808 
  70   0.0000      37.207078      1012.4561 
  71   0.0000      37.209002      1012.5084 
  72   0.0000     133.498931      3632.6906 

                 SPIN DOWN ORBITALS
  NO   OCC          E(Eh)            E(eV) 
   0   1.0000     -10.174331      -276.8576 
   1   1.0000      -0.643789       -17.5184 
   2   1.0000      -0.419501       -11.4152 
   3   1.0000      -0.400646       -10.9021 
   4   0.0000      -0.077157        -2.0995 
   5   0.0000       0.003763         0.1024 
   6   0.0000       0.035301         0.9606 
   7   0.0000       0.037391         1.0175 
   8   0.0000       0.060727         1.6525 
   9   0.0000       0.087788         2.3888 
  10   0.0000       0.092955         2.5294 
  11   0.0000       0.098015         2.6671 
  12   0.0000       0.222279         6.0485 
  13   0.0000       0.226371         6.1599 
  14   0.0000       0.266623         7.2552 
  15   0.0000       0.301802         8.2125 
  16   0.0000       0.310474         8.4484 
  17   0.0000       0.315620         8.5885 
  18   0.0000       0.349364         9.5067 
  19   0.0000       0.577157        15.7052 
  20   0.0000       0.589414        16.0388 
  21   0.0000       0.740125        20.1398 
  22   0.0000       0.748521        20.3683 
  23   0.0000       0.796442        21.6723 
  24   0.0000       0.824393        22.4329 
  25   0.0000       0.877965        23.8906 
  26   0.0000       0.899367        24.4730 
  27   0.0000       0.956924        26.0392 
  28   0.0000       0.973319        26.4854 
  29   0.0000       1.083916        29.4948 
  30   0.0000       1.121702        30.5231 
  31   0.0000       1.131349        30.7856 
  32   0.0000       1.174779        31.9674 
  33   0.0000       1.176464        32.0132 
  34   0.0000       1.465586        39.8806 
  35   0.0000       1.489311        40.5262 
  36   0.0000       1.499490        40.8032 
  37   0.0000       1.710028        46.5322 
  38   0.0000       1.735341        47.2210 
  39   0.0000       1.743015        47.4298 
  40   0.0000       2.761230        75.1369 
  41   0.0000       2.770998        75.4027 
  42   0.0000       2.888284        78.5942 
  43   0.0000       2.930545        79.7442 
  44   0.0000       2.964721        80.6742 
  45   0.0000       2.982443        81.1564 
  46   0.0000       3.033263        82.5393 
  47   0.0000       3.209496        87.3348 
  48   0.0000       3.217203        87.5445 
  49   0.0000       3.308545        90.0301 
  50   0.0000       3.312809        90.1461 
  51   0.0000       3.728938       101.4696 
  52   0.0000       3.775413       102.7342 
  53   0.0000       3.795278       103.2748 
  54   0.0000       3.878448       105.5379 
  55   0.0000       3.973630       108.1280 
  56   0.0000       4.031281       109.6967 
  57   0.0000       4.107999       111.7843 
  58   0.0000       4.125028       112.2477 
  59   0.0000       4.149978       112.9266 
  60   0.0000       4.609706       125.4365 
  61   0.0000       5.028856       136.8421 
  62   0.0000       5.322009       144.8192 
  63   0.0000       5.372616       146.1963 
  64   0.0000       5.500779       149.6838 
  65   0.0000       6.076186       165.3414 
  66   0.0000       6.110768       166.2825 
  67   0.0000       7.729925       210.3420 
  68   0.0000      29.074039       791.1448 
  69   0.0000      37.082091      1009.0550 
  70   0.0000      37.194956      1012.1262 
  71   0.0000      37.196811      1012.1767 
  72   0.0000     133.506840      3632.9058 

                    ********************************
                    * MULLIKEN POPULATION ANALYSIS *
                    ********************************

--------------------------------------------
MULLIKEN ATOMIC CHARGES AND SPIN POPULATIONS
--------------------------------------------
   0 C :   -0.427471    1.106166
   1 H :    0.137059   -0.036106
   2 H :    0.146815   -0.035017
   3 H :    0.143597   -0.035042
Sum of atomic charges         :   -0.0000000
Sum of atomic spin populations:    1.0000000

-----------------------------------------------------
MULLIKEN REDUCED ORBITAL CHARGES AND SPIN POPULATIONS
-----------------------------------------------------
CHARGE
  0 C s       :     3.341452  s :     3.341452
      pz      :     0.968934  p :     3.059140
      px      :     1.041857
      py      :     1.048349
      dz2     :     0.005740  d :     0.023950
      dxz     :     0.000054
      dyz     :     0.000092
      dx2y2   :     0.007860
      dxy     :     0.010205
      f0      :     0.000022  f :     0.002928
      f+1     :     0.000731
      f-1     :     0.000635
      f+2     :     0.000007
      f-2     :     0.000015
      f+3     :     0.001466
      f-3     :     0.000053
  1 H s       :     0.837162  s :     0.837162
      pz      :     0.010105  p :     0.025779
      px      :     0.006973
      py      :     0.008702
  2 H s       :     0.826567  s :     0.826567
      pz      :     0.010595  p :     0.026619
      px      :     0.009730
      py      :     0.006293
  3 H s       :     0.829575  s :     0.829575
      pz      :     0.010562  p :     0.026828
      px      :     0.007772
      py      :     0.008494

SPIN
  0 C s       :     0.067454  s :     0.067454
      pz      :     0.965064  p :     1.043030
      px      :     0.037453
      py      :     0.040514
      dz2     :    -0.004717  d :    -0.002977
      dxz     :     0.000002
      dyz     :    -0.000046
      dx2y2   :     0.000740
      dxy     :     0.001044
      f0      :    -0.000008  f :    -0.001342
      f+1     :    -0.000658
      f-1     :    -0.000604
      f+2     :    -0.000004
      f-2     :    -0.000006
      f+3     :    -0.000063
      f-3     :     0.000001
  1 H s       :    -0.045676  s :    -0.045676
      pz      :     0.010063  p :     0.009570
      px      :    -0.000297
      py      :    -0.000197
  2 H s       :    -0.045350  s :    -0.045350
      pz      :     0.010565  p :     0.010333
      px      :    -0.000062
      py      :    -0.000171
  3 H s       :    -0.045182  s :    -0.045182
      pz      :     0.010535  p :     0.010140
      px      :    -0.000175
      py      :    -0.000220


                     *******************************
                     * LOEWDIN POPULATION ANALYSIS *
                     *******************************

-------------------------------------------
LOEWDIN ATOMIC CHARGES AND SPIN POPULATIONS
-------------------------------------------
   0 C :   -0.163884    0.914345
   1 H :    0.055962    0.027892
   2 H :    0.056670    0.028012
   3 H :    0.051252    0.029751

----------------------------------------------------
LOEWDIN REDUCED ORBITAL CHARGES AND SPIN POPULATIONS
----------------------------------------------------
CHARGE
  0 C s       :     2.893700  s :     2.893700
      pz      :     0.877881  p :     3.172003
      px      :     1.144217
      py      :     1.149905
      dz2     :     0.006982  d :     0.090767
      dxz     :     0.000204
      dyz     :     0.000217
      dx2y2   :     0.037637
      dxy     :     0.045726
      f0      :     0.000218  f :     0.007415
      f+1     :     0.002117
      f-1     :     0.001839
      f+2     :     0.000020
      f-2     :     0.000038
      f+3     :     0.002996
      f-3     :     0.000187
  1 H s       :     0.804005  s :     0.804005
      pz      :     0.040482  p :     0.140033
      px      :     0.038802
      py      :     0.060749
  2 H s       :     0.803057  s :     0.803057
      pz      :     0.040677  p :     0.140272
      px      :     0.070036
      py      :     0.029559
  3 H s       :     0.804752  s :     0.804752
      pz      :     0.041893  p :     0.143996
      px      :     0.043938
      py      :     0.058165

SPIN
  0 C s       :     0.020047  s :     0.020047
      pz      :     0.873546  p :     0.903189
      px      :     0.012772
      py      :     0.016872
      dz2     :    -0.004052  d :    -0.007551
      dxz     :    -0.000011
      dyz     :    -0.000047
      dx2y2   :    -0.001545
      dxy     :    -0.001896
      f0      :     0.000160  f :    -0.001340
      f+1     :    -0.000612
      f-1     :    -0.000558
      f+2     :    -0.000005
      f-2     :    -0.000007
      f+3     :    -0.000307
      f-3     :    -0.000012
  1 H s       :    -0.017467  s :    -0.017467
      pz      :     0.040238  p :     0.045359
      px      :     0.001529
      py      :     0.003591
  2 H s       :    -0.018045  s :    -0.018045
      pz      :     0.040545  p :     0.046057
      px      :     0.004823
      py      :     0.000689
  3 H s       :    -0.017332  s :    -0.017332
      pz      :     0.041711  p :     0.047083
      px      :     0.002155
      py      :     0.003217


                      *****************************
                      * MAYER POPULATION ANALYSIS *
                      *****************************

  NA   - Mulliken gross atomic population
  ZA   - Total nuclear charge
  QA   - Mulliken gross atomic charge
  VA   - Mayer's total valence
  BVA  - Mayer's bonded valence
  FA   - Mayer's free valence

  ATOM       NA         ZA         QA         VA         BVA        FA
  0 C      6.4275     6.0000    -0.4275     3.8726     2.9260     0.9466
  1 H      0.8629     1.0000     0.1371     0.9809     0.9788     0.0021
  2 H      0.8532     1.0000     0.1468     0.9845     0.9825     0.0021
  3 H      0.8564     1.0000     0.1436     0.9826     0.9805     0.0020

  Mayer bond orders larger than 0.100000
B(  0-C ,  1-H ) :   0.9763 B(  0-C ,  2-H ) :   0.9743 B(  0-C ,  3-H ) :   0.9753 


-------
TIMINGS
-------

Total SCF time: 0 days 0 hours 0 min 5 sec 

Total time                  ....       5.151 sec
Sum of individual times     ....       4.579 sec  ( 88.9%)

Fock matrix formation       ....       3.919 sec  ( 76.1%)
  Split-RI-J                ....       0.397 sec  ( 10.1% of F)
  Chain of spheres X        ....       0.933 sec  ( 23.8% of F)
  XC integration            ....       1.694 sec  ( 43.2% of F)
    Basis function eval.    ....       0.113 sec  (  6.7% of XC)
    Density eval.           ....       0.133 sec  (  7.9% of XC)
    XC-Functional eval.     ....       0.109 sec  (  6.5% of XC)
    XC-Potential eval.      ....       0.158 sec  (  9.3% of XC)
Diagonalization             ....       0.038 sec  (  0.7%)
Density matrix formation    ....       0.003 sec  (  0.1%)
Population analysis         ....       0.068 sec  (  1.3%)
Initial guess               ....       0.049 sec  (  1.0%)
Orbital Transformation      ....       0.000 sec  (  0.0%)
Orbital Orthonormalization  ....       0.000 sec  (  0.0%)
DIIS solution               ....       0.074 sec  (  1.4%)
Grid generation             ....       0.427 sec  (  8.3%)

Maximum memory used throughout the entire SCF-calculation: 59.0 MB

-------------------------   --------------------
FINAL SINGLE POINT ENERGY       -39.827447940062
-------------------------   --------------------

   --->>> g-tensor requested, so NeedSOC=true

                            ***************************************
                            *     ORCA property calculations      *
                            ***************************************

                                    ---------------------
                                    Active property flags
                                    ---------------------
   (+) Dipole Moment
   (+) g-tensor
   (+) Nuclear properties (Hyperfine,Quadrupole)
   (+) Spin-Orbit Integrals are needed


------------------------------------------------------------------------------
                       ORCA ELECTRIC PROPERTIES CALCULATION
------------------------------------------------------------------------------

Dipole Moment Calculation                       ... on
Quadrupole Moment Calculation                   ... off
Polarizability Calculation                      ... off
GBWName                                         ... /home/rwth0701/scratch/cs681498/orcajob__30556435-Qic0/13210.gbw
Electron density                                ... /home/rwth0701/scratch/cs681498/orcajob__30556435-Qic0/13210.scfp
The origin for moment calculation is the CENTER OF MASS  = (-109.892144, -151.707246 -47.660410)

-------------
DIPOLE MOMENT
-------------
                                X             Y             Z
Electronic contribution:     -0.05685      -0.05029      -0.01634
Nuclear contribution   :      0.06392       0.05398       0.02479
                        -----------------------------------------
Total Dipole Moment    :      0.00707       0.00368       0.00845
                        -----------------------------------------
Magnitude (a.u.)       :      0.01162
Magnitude (Debye)      :      0.02953



--------------------
Rotational spectrum 
--------------------
 
Rotational constants in cm-1:     9.926608     8.729182     4.645338 
Rotational constants in MHz : 297592.207397 261694.281317 139263.717962 

 Dipole components along the rotational axes: 
x,y,z [a.u.] :     0.006162     0.005316     0.008291 
x,y,z [Debye]:     0.015662     0.013512     0.021074 

 


           ************************************************************
           *        Program running with 4 parallel MPI-processes     *
           *              working on a common directory               *
           ************************************************************
------------------------------------------------------------------------------
                         ORCA SPIN-ORBIT COUPLING CALCULATION
------------------------------------------------------------------------------

GBW file                                    ... /home/rwth0701/scratch/cs681498/orcajob__30556435-Qic0/13210.gbw
Input density                               ... /home/rwth0701/scratch/cs681498/orcajob__30556435-Qic0/13210.scfp
Output integrals                            ... /home/rwth0701/scratch/cs681498/orcajob__30556435-Qic0/13210
Operator type                               ... Mean-field/Effective potential
   One-Electron Terms                       ... 1
   Coulomb Contribution                     ... 3
   Exchange Contribution                    ... 3
   Correlation Contribution                 ... 0
   Maximum number of centers                ... 4
SHARK 2-electron RIJ-SOMF                   ... done (  0.1 sec)
SHARK 1-electron  MaxCenter=4               ... done (  0.0 sec)
SHARK 2-electron DoJ,X=0,1 MaxCenter=1      ... done (  0.1 sec)

Maximum memory used throughout the entire SOC-calculation: 11.3 MB
Total time for SOC:  2.006


           ************************************************************
           *        Program running with 4 parallel MPI-processes     *
           *              working on a common directory               *
           ************************************************************
------------------------------------------------------------------------------
                                ORCA EPR/NMR CALCULATION
------------------------------------------------------------------------------

GBWName                      ... /home/rwth0701/scratch/cs681498/orcajob__30556435-Qic0/13210.gbw
Electron density             ... /home/rwth0701/scratch/cs681498/orcajob__30556435-Qic0/13210.scfp
Spin density                 ... /home/rwth0701/scratch/cs681498/orcajob__30556435-Qic0/13210.scfr
Spin-orbit integrals         ... /home/rwth0701/scratch/cs681498/orcajob__30556435-Qic0/13210
Treatment of gauge           ... GIAO (approximations 1/2el = 0,0)
Details of the CP(SCF) procedure:
       Solver   = POPLE   
       MaxIter  =    64   
       Tolerance=    1.000e-03
       COSX Grid=     1   
       Op-0     =   0-  4 =>   5- 72
       Op-1     =   0-  3 =>   4- 72
Multiplicity                 ... 2
g-tensor                     ... 1
NMR chemical shifts          ... 0
NMR spin-spin couplings      ... 0
NMR spectrum                 ... 0
Number of nuclei for epr/nmr ... 4
   Nucleus:   1H 
       Hyperfine : Isotope=    1 I=   0.500 P= 533.551
       Quadrupole: Isotope=    2 I=   1.000 Q=   0.003
       Spin-Orbit: Zeff=   1.000
       Nuclear Spin-Spin: Gn=   0.000
       EPRNMR Input: 
       rho(0)=N f(grad)=N a(iso)=Y a(dip)=Y a(orb)=Y sigma(nmr)=N spin-spin(nmr)=all-N,DSO-N,PSO-N,FC-N,SD-N
   Nucleus:   2H 
       Hyperfine : Isotope=    1 I=   0.500 P= 533.551
       Quadrupole: Isotope=    2 I=   1.000 Q=   0.003
       Spin-Orbit: Zeff=   1.000
       Nuclear Spin-Spin: Gn=   0.000
       EPRNMR Input: 
       rho(0)=N f(grad)=N a(iso)=Y a(dip)=Y a(orb)=Y sigma(nmr)=N spin-spin(nmr)=all-N,DSO-N,PSO-N,FC-N,SD-N
   Nucleus:   3H 
       Hyperfine : Isotope=    1 I=   0.500 P= 533.551
       Quadrupole: Isotope=    2 I=   1.000 Q=   0.003
       Spin-Orbit: Zeff=   1.000
       Nuclear Spin-Spin: Gn=   0.000
       EPRNMR Input: 
       rho(0)=N f(grad)=N a(iso)=Y a(dip)=Y a(orb)=Y sigma(nmr)=N spin-spin(nmr)=all-N,DSO-N,PSO-N,FC-N,SD-N
   Nucleus:   0C 
       Hyperfine : Isotope=   13 I=   0.500 P= 134.190
       Quadrupole: Isotope=   13 I=   0.500 Q=   0.000
       Spin-Orbit: Zeff=   3.600
       Nuclear Spin-Spin: Gn=   0.000
       EPRNMR Input: 
       rho(0)=N f(grad)=N a(iso)=Y a(dip)=Y a(orb)=Y sigma(nmr)=N spin-spin(nmr)=all-N,DSO-N,PSO-N,FC-N,SD-N
Forming RHS of the CP-SCF equations         ... 
Calculating right hand sides for GIAO treatment        ... 
  Entering RightHandSide GIAO. ScalHFX=    0.2000 NeedHFX=1
     -> 1-electron GIAO integrals will be done analytically
     -> RIJCOSX used in SCF. Same chosen for GIAO calculation.
     Making grid for GIAO integrations   ...

GRID GIAO
---------

General Integration Accuracy     IntAcc      ... 4.388
Radial Grid Type                 RadialGrid  ... OptM3 with GC (2021)
Angular Grid (max. ang.)         AngularGrid ... 4 (Lebedev-302)
Angular grid pruning method      GridPruning ... 4 (adaptive)
Weight generation scheme         WeightScheme... Becke
Basis function cutoff            BFCut       ... 1.0000e-10
Integration weight cutoff        WCut        ... 1.0000e-14
Angular grids for H and He will be reduced by one unit
Partially contracted basis set               ... off
Rotationally invariant grid construction     ... off

Total number of grid points                  ...    17030
Total number of batches                      ...      268
Average number of points per batch           ...       63
Average number of grid points per atom       ...     4258

  One-electron GIAO integrals (SHARK)     ... done
  Calculating G(B)[P]                     ... (RI-J: SHARK-ok) (COSX-ok) (add-J+K:ok) => dG/dB done
  DFT XC-terms                            ... done
  Extracting occupied and virtual blocks  ... 
  Operator  0  NO=   5 NV=  68 
  Operator  1  NO=   4 NV=  69 
  Transforming and RHS contribution       ... done
  Adding eps_i * S(B)_ai terms            ... done
  Projecting overlap derivatives          ... done
  Building G[dS/dB_ij] (COSX)             ... done
  Transforming to MO basis                ... done
  Summing G[dS/dB_ij] into RHS contribs.  ... done

  GIAO profiling information: 
    Total GIAO time               ...       0.8 sec
       GIAO 1-electron integrals  ...       0.0 sec (  0.5%)
       GIAO G(dS/dB) terms        ...       0.1 sec ( 13.4%)
       GIAO RI-J                  ...       0.1 sec ( 12.8%)
       GIAO COSX                  ...       0.2 sec ( 18.8%)
       GIAO XC-terms              ...       0.3 sec ( 37.1%)

  GIAO right hand side done


------------------------------------------------------------------------------
                           ORCA CP-SCF CALCULATION
------------------------------------------------------------------------------

Input orbitals are from        ... /home/rwth0701/scratch/cs681498/orcajob__30556435-Qic0/13210.gbw
Input Perturbation             ... /home/rwth0701/scratch/cs681498/orcajob__30556435-Qic0/13210.pin.tmp
Wavefunction output            ... /home/rwth0701/scratch/cs681498/orcajob__30556435-Qic0/13210.pout.tmp
Perturbation mode              ... Imaginary perturbation
Solver                         ... POPLE
Max. number of iterations      ... 64
Convergence tolerance          ... 1.000e-03
Integral handling              ... Direct
DFT GridXC                     ... 1
COSX GridX                     ... 1
COSX IntAccX                   ... 3.067
COSX Algorithm                 ... Auto
Number of perturbations        ... 3
Number of operators            ... 2
Orbital ranges used for CP-SCF:
 Operator 0:  Orbitals   0...  4  to   5... 72
 Operator 1:  Orbitals   0...  3  to   4... 72
Variables per perturbation     ... 616
DFT calculation                         ... on
XC functional terms                     ... off
Hybrid DFT                              ... on
   Exchange mixing (SCF)                ...  0.200
   Exchange mixing (CP-SCF)             ...  0.200
   GGA exch. scaling(SCF)               ...  0.720
   GGA exch. scaling (CP-SCF)           ...  0.720
   GGA corr. scaling (SCF)              ...  0.810
   GGA corr. scaling (CP-SCF)           ...  0.810

CP-SCF GRID
-----------

General Integration Accuracy     IntAcc      ... 3.467
Radial Grid Type                 RadialGrid  ... OptM3 with GC (2021)
Angular Grid (max. ang.)         AngularGrid ... 1 (Lebedev-50)
Angular grid pruning method      GridPruning ... 4 (adaptive)
Weight generation scheme         WeightScheme... Becke
Basis function cutoff            BFCut       ... 1.0000e-10
Integration weight cutoff        WCut        ... 1.0000e-14
Angular grids for H and He will be reduced by one unit
Partially contracted basis set               ... off
Rotationally invariant grid construction     ... off

Total number of grid points                  ...     2335
Total number of batches                      ...       38
Average number of points per batch           ...       61
Average number of grid points per atom       ...      584

CP-SCF GRIDX
------------

General Integration Accuracy     IntAcc      ... 3.067
Radial Grid Type                 RadialGrid  ... OptM3 with GC (2021)
Angular Grid (max. ang.)         AngularGrid ... 1 (Lebedev-50)
Angular grid pruning method      GridPruning ... 4 (adaptive)
Weight generation scheme         WeightScheme... Becke
Basis function cutoff            BFCut       ... 1.0000e-10
Integration weight cutoff        WCut        ... 1.0000e-14
Angular grids for H and He will be reduced by one unit
Partially contracted basis set               ... on
Rotationally invariant grid construction     ... off

Total number of grid points                  ...     1069
Total number of batches                      ...       20
Average number of points per batch           ...       53
Average number of grid points per atom       ...      267

Memory available               ... 1014.6 MB
Memory needed per perturbation ...   0.4 MB
Perturbations treated per batch... 3
Number of batches              ... 1
     CP-SCF ITERATION   0:   8.6116e+00 (   0.1 sec   0/  3 done)
     CP-SCF ITERATION   1:   6.3426e-02 (   0.1 sec   0/  3 done)
     CP-SCF ITERATION   2:   3.2971e-03 (   0.1 sec   0/  3 done)
     CP-SCF ITERATION   3:   1.5895e-04 (   0.1 sec   3/  3 done)
                    *** THE CP-SCF HAS CONVERGED ***

Forming final perturbed densities           ... done
Transforming perturbed density to AO basis  ... done

Magnetic field perturbation calculated in  1.308 sec
GIAO: Diamagnetic terms      (analytic)     (SHARK) ... done
GIAO: 1el-Paramagnetic terms (analytic)     (SHARK) ... done

-------------------
ELECTRONIC G-MATRIX
-------------------

 The g-matrix: 
              2.0029045   -0.0000024   -0.0000075
             -0.0000037    2.0028757    0.0000396
             -0.0000003    0.0000525    2.0022314

 gel          2.0023193    2.0023193    2.0023193
 gRMC        -0.0001273   -0.0001273   -0.0001273
 gDSO(tot)    0.0000343    0.0000707    0.0000710
 gPSO(tot)    0.0000017    0.0006158    0.0006420
             ----------   ----------   ----------
 g(tot)       2.0022281    2.0028785    2.0029049 iso=  2.0026705
 Delta-g     -0.0000912    0.0005592    0.0005857 iso=  0.0003512
 Orientation: 
  X           0.0053920    0.1262798   -0.9919800
  Y          -0.0709552    0.9895424    0.1255838
  Z           0.9974649    0.0697090    0.0142958

Notes:  (1) The g-matrix conforms to the "BgS" spin Hamiltonian convention. 
        (2) The principal values are square roots of the eigenvalues of g*gT.
        (3) Orientations are eigenvectors of g*gT written as column vectors.
        (4) Individual contributions are projections of the full matrices onto the eigenvectors of g*gT.
        (5) Tensor is right-handed.


-----------------------------------------
ELECTRIC AND MAGNETIC HYPERFINE STRUCTURE
-----------------------------------------

 -----------------------------------------------------------
 Nucleus   1H : A:ISTP=    1 I=  0.5 P=533.5514 MHz/au**3
                Q:ISTP=    2 I=  1.0 Q=  0.0029 barn     
 -----------------------------------------------------------
 Solving for nuclear perturbation:
Forming RHS of the CP-SCF equations         ... 
Calc. nucleus orbit integrals (SHARK)       ... done

------------------------------------------------------------------------------
                           ORCA CP-SCF CALCULATION
------------------------------------------------------------------------------

Input orbitals are from        ... /home/rwth0701/scratch/cs681498/orcajob__30556435-Qic0/13210.gbw
Input Perturbation             ... /home/rwth0701/scratch/cs681498/orcajob__30556435-Qic0/13210.pin.tmp
Wavefunction output            ... /home/rwth0701/scratch/cs681498/orcajob__30556435-Qic0/13210.pout.tmp
Perturbation mode              ... Imaginary perturbation
Solver                         ... POPLE
Max. number of iterations      ... 64
Convergence tolerance          ... 1.000e-03
Integral handling              ... Direct
DFT GridXC                     ... 1
COSX GridX                     ... 1
COSX IntAccX                   ... 3.067
COSX Algorithm                 ... Auto
Number of perturbations        ... 3
Number of operators            ... 2
Orbital ranges used for CP-SCF:
 Operator 0:  Orbitals   0...  4  to   5... 72
 Operator 1:  Orbitals   0...  3  to   4... 72
Variables per perturbation     ... 616
DFT calculation                         ... on
XC functional terms                     ... off
Hybrid DFT                              ... on
   Exchange mixing (SCF)                ...  0.200
   Exchange mixing (CP-SCF)             ...  0.200
   GGA exch. scaling(SCF)               ...  0.720
   GGA exch. scaling (CP-SCF)           ...  0.720
   GGA corr. scaling (SCF)              ...  0.810
   GGA corr. scaling (CP-SCF)           ...  0.810

CP-SCF GRID
-----------

General Integration Accuracy     IntAcc      ... 3.467
Radial Grid Type                 RadialGrid  ... OptM3 with GC (2021)
Angular Grid (max. ang.)         AngularGrid ... 1 (Lebedev-50)
Angular grid pruning method      GridPruning ... 4 (adaptive)
Weight generation scheme         WeightScheme... Becke
Basis function cutoff            BFCut       ... 1.0000e-10
Integration weight cutoff        WCut        ... 1.0000e-14
Angular grids for H and He will be reduced by one unit
Partially contracted basis set               ... off
Rotationally invariant grid construction     ... off

Total number of grid points                  ...     2335
Total number of batches                      ...       38
Average number of points per batch           ...       61
Average number of grid points per atom       ...      584

CP-SCF GRIDX
------------

General Integration Accuracy     IntAcc      ... 3.067
Radial Grid Type                 RadialGrid  ... OptM3 with GC (2021)
Angular Grid (max. ang.)         AngularGrid ... 1 (Lebedev-50)
Angular grid pruning method      GridPruning ... 4 (adaptive)
Weight generation scheme         WeightScheme... Becke
Basis function cutoff            BFCut       ... 1.0000e-10
Integration weight cutoff        WCut        ... 1.0000e-14
Angular grids for H and He will be reduced by one unit
Partially contracted basis set               ... on
Rotationally invariant grid construction     ... off

Total number of grid points                  ...     1069
Total number of batches                      ...       20
Average number of points per batch           ...       53
Average number of grid points per atom       ...      267

Memory available               ... 968.0 MB
Memory needed per perturbation ...   0.4 MB
Perturbations treated per batch... 3
Number of batches              ... 1
     CP-SCF ITERATION   0:   6.0959e-02 (   0.1 sec   0/  3 done)
     CP-SCF ITERATION   1:   2.2074e-03 (   0.1 sec   1/  3 done)
     CP-SCF ITERATION   2:   1.7946e-04 (   0.1 sec   3/  3 done)
                    *** THE CP-SCF HAS CONVERGED ***

Forming final perturbed densities           ... done
Transforming perturbed density to AO basis  ... done

 Raw HFC matrix (all values in MHz): 
 -----------------------------------
               -84.3712              32.6285               2.4220
                32.6282             -44.9552               1.1305
                 2.4220               1.1305             -64.1586

 A(FC)         -64.5090             -64.5090             -64.5090
 A(SD)          38.0774               0.2882             -38.3656
 A(ORB+DIA)      0.0123              -0.0007               0.0306    A(PC) =   0.0141
 A(ORB)          0.0076               0.0005               0.0292    A(PC) =   0.0124
 A(DIA)          0.0047              -0.0011               0.0013    A(PC) =   0.0016
             ----------           ----------           ----------
 A(Tot)        -26.4193             -64.2215            -102.8441    A(iso)=  -64.4950
 Orientation: 
  X           0.4916215            0.0067129            0.8707831
  Y           0.8689033           -0.0699012           -0.4900213
  Z           0.0575793            0.9975313           -0.0401978

Notes:  (1) The A matrix conforms to the "SAI" spin Hamiltonian convention.
        (2) Tensor is right-handed.

 -----------------------------------------------------------
 Nucleus   2H : A:ISTP=    1 I=  0.5 P=533.5514 MHz/au**3
                Q:ISTP=    2 I=  1.0 Q=  0.0029 barn     
 -----------------------------------------------------------
 Solving for nuclear perturbation:
Forming RHS of the CP-SCF equations         ... 
Calc. nucleus orbit integrals (SHARK)       ... done

------------------------------------------------------------------------------
                           ORCA CP-SCF CALCULATION
------------------------------------------------------------------------------

Input orbitals are from        ... /home/rwth0701/scratch/cs681498/orcajob__30556435-Qic0/13210.gbw
Input Perturbation             ... /home/rwth0701/scratch/cs681498/orcajob__30556435-Qic0/13210.pin.tmp
Wavefunction output            ... /home/rwth0701/scratch/cs681498/orcajob__30556435-Qic0/13210.pout.tmp
Perturbation mode              ... Imaginary perturbation
Solver                         ... POPLE
Max. number of iterations      ... 64
Convergence tolerance          ... 1.000e-03
Integral handling              ... Direct
DFT GridXC                     ... 1
COSX GridX                     ... 1
COSX IntAccX                   ... 3.067
COSX Algorithm                 ... Auto
Number of perturbations        ... 3
Number of operators            ... 2
Orbital ranges used for CP-SCF:
 Operator 0:  Orbitals   0...  4  to   5... 72
 Operator 1:  Orbitals   0...  3  to   4... 72
Variables per perturbation     ... 616
DFT calculation                         ... on
XC functional terms                     ... off
Hybrid DFT                              ... on
   Exchange mixing (SCF)                ...  0.200
   Exchange mixing (CP-SCF)             ...  0.200
   GGA exch. scaling(SCF)               ...  0.720
   GGA exch. scaling (CP-SCF)           ...  0.720
   GGA corr. scaling (SCF)              ...  0.810
   GGA corr. scaling (CP-SCF)           ...  0.810

CP-SCF GRID
-----------

General Integration Accuracy     IntAcc      ... 3.467
Radial Grid Type                 RadialGrid  ... OptM3 with GC (2021)
Angular Grid (max. ang.)         AngularGrid ... 1 (Lebedev-50)
Angular grid pruning method      GridPruning ... 4 (adaptive)
Weight generation scheme         WeightScheme... Becke
Basis function cutoff            BFCut       ... 1.0000e-10
Integration weight cutoff        WCut        ... 1.0000e-14
Angular grids for H and He will be reduced by one unit
Partially contracted basis set               ... off
Rotationally invariant grid construction     ... off

Total number of grid points                  ...     2335
Total number of batches                      ...       38
Average number of points per batch           ...       61
Average number of grid points per atom       ...      584

CP-SCF GRIDX
------------

General Integration Accuracy     IntAcc      ... 3.067
Radial Grid Type                 RadialGrid  ... OptM3 with GC (2021)
Angular Grid (max. ang.)         AngularGrid ... 1 (Lebedev-50)
Angular grid pruning method      GridPruning ... 4 (adaptive)
Weight generation scheme         WeightScheme... Becke
Basis function cutoff            BFCut       ... 1.0000e-10
Integration weight cutoff        WCut        ... 1.0000e-14
Angular grids for H and He will be reduced by one unit
Partially contracted basis set               ... on
Rotationally invariant grid construction     ... off

Total number of grid points                  ...     1069
Total number of batches                      ...       20
Average number of points per batch           ...       53
Average number of grid points per atom       ...      267

Memory available               ... 967.8 MB
Memory needed per perturbation ...   0.4 MB
Perturbations treated per batch... 3
Number of batches              ... 1
     CP-SCF ITERATION   0:   6.7032e-02 (   0.1 sec   0/  3 done)
     CP-SCF ITERATION   1:   2.4457e-03 (   0.1 sec   1/  3 done)
     CP-SCF ITERATION   2:   1.6273e-04 (   0.1 sec   3/  3 done)
                    *** THE CP-SCF HAS CONVERGED ***

Forming final perturbed densities           ... done
Transforming perturbed density to AO basis  ... done

 Raw HFC matrix (all values in MHz): 
 -----------------------------------
               -29.2152               0.4555              -0.8129
                 0.4558            -105.7188              -2.3454
                -0.8130              -2.3454             -67.1218

 A(FC)         -67.3656             -67.3656             -67.3656
 A(SD)          38.1593               0.3679             -38.5271
 A(ORB+DIA)      0.0119              -0.0006               0.0298    A(PC) =   0.0137
 A(ORB)          0.0072               0.0005               0.0285    A(PC) =   0.0120
 A(DIA)          0.0047              -0.0011               0.0013    A(PC) =   0.0016
             ----------           ----------           ----------
 A(Tot)        -29.1944             -66.9984            -105.8630    A(iso)=  -67.3519
 Orientation: 
  X           0.9997396           -0.0221970           -0.0052918
  Y           0.0066198            0.0601880            0.9981651
  Z          -0.0218378           -0.9979402            0.0603193

Notes:  (1) The A matrix conforms to the "SAI" spin Hamiltonian convention.
        (2) Tensor is right-handed.

 -----------------------------------------------------------
 Nucleus   3H : A:ISTP=    1 I=  0.5 P=533.5514 MHz/au**3
                Q:ISTP=    2 I=  1.0 Q=  0.0029 barn     
 -----------------------------------------------------------
 Solving for nuclear perturbation:
Forming RHS of the CP-SCF equations         ... 
Calc. nucleus orbit integrals (SHARK)       ... done

------------------------------------------------------------------------------
                           ORCA CP-SCF CALCULATION
------------------------------------------------------------------------------

Input orbitals are from        ... /home/rwth0701/scratch/cs681498/orcajob__30556435-Qic0/13210.gbw
Input Perturbation             ... /home/rwth0701/scratch/cs681498/orcajob__30556435-Qic0/13210.pin.tmp
Wavefunction output            ... /home/rwth0701/scratch/cs681498/orcajob__30556435-Qic0/13210.pout.tmp
Perturbation mode              ... Imaginary perturbation
Solver                         ... POPLE
Max. number of iterations      ... 64
Convergence tolerance          ... 1.000e-03
Integral handling              ... Direct
DFT GridXC                     ... 1
COSX GridX                     ... 1
COSX IntAccX                   ... 3.067
COSX Algorithm                 ... Auto
Number of perturbations        ... 3
Number of operators            ... 2
Orbital ranges used for CP-SCF:
 Operator 0:  Orbitals   0...  4  to   5... 72
 Operator 1:  Orbitals   0...  3  to   4... 72
Variables per perturbation     ... 616
DFT calculation                         ... on
XC functional terms                     ... off
Hybrid DFT                              ... on
   Exchange mixing (SCF)                ...  0.200
   Exchange mixing (CP-SCF)             ...  0.200
   GGA exch. scaling(SCF)               ...  0.720
   GGA exch. scaling (CP-SCF)           ...  0.720
   GGA corr. scaling (SCF)              ...  0.810
   GGA corr. scaling (CP-SCF)           ...  0.810

CP-SCF GRID
-----------

General Integration Accuracy     IntAcc      ... 3.467
Radial Grid Type                 RadialGrid  ... OptM3 with GC (2021)
Angular Grid (max. ang.)         AngularGrid ... 1 (Lebedev-50)
Angular grid pruning method      GridPruning ... 4 (adaptive)
Weight generation scheme         WeightScheme... Becke
Basis function cutoff            BFCut       ... 1.0000e-10
Integration weight cutoff        WCut        ... 1.0000e-14
Angular grids for H and He will be reduced by one unit
Partially contracted basis set               ... off
Rotationally invariant grid construction     ... off

Total number of grid points                  ...     2335
Total number of batches                      ...       38
Average number of points per batch           ...       61
Average number of grid points per atom       ...      584

CP-SCF GRIDX
------------

General Integration Accuracy     IntAcc      ... 3.067
Radial Grid Type                 RadialGrid  ... OptM3 with GC (2021)
Angular Grid (max. ang.)         AngularGrid ... 1 (Lebedev-50)
Angular grid pruning method      GridPruning ... 4 (adaptive)
Weight generation scheme         WeightScheme... Becke
Basis function cutoff            BFCut       ... 1.0000e-10
Integration weight cutoff        WCut        ... 1.0000e-14
Angular grids for H and He will be reduced by one unit
Partially contracted basis set               ... on
Rotationally invariant grid construction     ... off

Total number of grid points                  ...     1069
Total number of batches                      ...       20
Average number of points per batch           ...       53
Average number of grid points per atom       ...      267

Memory available               ... 967.7 MB
Memory needed per perturbation ...   0.4 MB
Perturbations treated per batch... 3
Number of batches              ... 1
     CP-SCF ITERATION   0:   6.4568e-02 (   0.1 sec   0/  3 done)
     CP-SCF ITERATION   1:   2.5040e-03 (   0.1 sec   1/  3 done)
     CP-SCF ITERATION   2:   2.1237e-04 (   0.1 sec   3/  3 done)
                    *** THE CP-SCF HAS CONVERGED ***

Forming final perturbed densities           ... done
Transforming perturbed density to AO basis  ... done

 Raw HFC matrix (all values in MHz): 
 -----------------------------------
               -77.8206             -36.9892              -1.8370
               -36.9891             -54.3563               0.7601
                -1.8370               0.7601             -64.7798

 A(FC)         -65.6662             -65.6662             -65.6662
 A(SD)          38.4477               0.8369             -39.2846
 A(ORB+DIA)      0.0120              -0.0006               0.0306    A(PC) =   0.0140
 A(ORB)          0.0071               0.0005               0.0292    A(PC) =   0.0123
 A(DIA)          0.0049              -0.0011               0.0014    A(PC) =   0.0017
             ----------           ----------           ----------
 A(Tot)        -27.2065             -64.8299            -104.9202    A(iso)=  -65.6522
 Orientation: 
  X          -0.5905023            0.0058913            0.8070144
  Y           0.8057709           -0.0516648            0.5899695
  Z           0.0451699            0.9986471            0.0257611

Notes:  (1) The A matrix conforms to the "SAI" spin Hamiltonian convention.
        (2) Tensor is right-handed.

 -----------------------------------------------------------
 Nucleus   0C : A:ISTP=   13 I=  0.5 P=134.1903 MHz/au**3
                Q:ISTP=   13 I=  0.5 Q=  0.0000 barn     
 -----------------------------------------------------------
 Solving for nuclear perturbation:
Forming RHS of the CP-SCF equations         ... 
Calc. nucleus orbit integrals (SHARK)       ... done

------------------------------------------------------------------------------
                           ORCA CP-SCF CALCULATION
------------------------------------------------------------------------------

Input orbitals are from        ... /home/rwth0701/scratch/cs681498/orcajob__30556435-Qic0/13210.gbw
Input Perturbation             ... /home/rwth0701/scratch/cs681498/orcajob__30556435-Qic0/13210.pin.tmp
Wavefunction output            ... /home/rwth0701/scratch/cs681498/orcajob__30556435-Qic0/13210.pout.tmp
Perturbation mode              ... Imaginary perturbation
Solver                         ... POPLE
Max. number of iterations      ... 64
Convergence tolerance          ... 1.000e-03
Integral handling              ... Direct
DFT GridXC                     ... 1
COSX GridX                     ... 1
COSX IntAccX                   ... 3.067
COSX Algorithm                 ... Auto
Number of perturbations        ... 3
Number of operators            ... 2
Orbital ranges used for CP-SCF:
 Operator 0:  Orbitals   0...  4  to   5... 72
 Operator 1:  Orbitals   0...  3  to   4... 72
Variables per perturbation     ... 616
DFT calculation                         ... on
XC functional terms                     ... off
Hybrid DFT                              ... on
   Exchange mixing (SCF)                ...  0.200
   Exchange mixing (CP-SCF)             ...  0.200
   GGA exch. scaling(SCF)               ...  0.720
   GGA exch. scaling (CP-SCF)           ...  0.720
   GGA corr. scaling (SCF)              ...  0.810
   GGA corr. scaling (CP-SCF)           ...  0.810

CP-SCF GRID
-----------

General Integration Accuracy     IntAcc      ... 3.467
Radial Grid Type                 RadialGrid  ... OptM3 with GC (2021)
Angular Grid (max. ang.)         AngularGrid ... 1 (Lebedev-50)
Angular grid pruning method      GridPruning ... 4 (adaptive)
Weight generation scheme         WeightScheme... Becke
Basis function cutoff            BFCut       ... 1.0000e-10
Integration weight cutoff        WCut        ... 1.0000e-14
Angular grids for H and He will be reduced by one unit
Partially contracted basis set               ... off
Rotationally invariant grid construction     ... off

Total number of grid points                  ...     2335
Total number of batches                      ...       38
Average number of points per batch           ...       61
Average number of grid points per atom       ...      584

CP-SCF GRIDX
------------

General Integration Accuracy     IntAcc      ... 3.067
Radial Grid Type                 RadialGrid  ... OptM3 with GC (2021)
Angular Grid (max. ang.)         AngularGrid ... 1 (Lebedev-50)
Angular grid pruning method      GridPruning ... 4 (adaptive)
Weight generation scheme         WeightScheme... Becke
Basis function cutoff            BFCut       ... 1.0000e-10
Integration weight cutoff        WCut        ... 1.0000e-14
Angular grids for H and He will be reduced by one unit
Partially contracted basis set               ... on
Rotationally invariant grid construction     ... off

Total number of grid points                  ...     1069
Total number of batches                      ...       20
Average number of points per batch           ...       53
Average number of grid points per atom       ...      267

Memory available               ... 967.6 MB
Memory needed per perturbation ...   0.4 MB
Perturbations treated per batch... 3
Number of batches              ... 1
     CP-SCF ITERATION   0:   1.1428e+00 (   0.1 sec   0/  3 done)
     CP-SCF ITERATION   1:   4.1995e-02 (   0.1 sec   0/  3 done)
     CP-SCF ITERATION   2:   3.0333e-03 (   0.1 sec   1/  3 done)
     CP-SCF ITERATION   3:   1.2114e-04 (   0.1 sec   3/  3 done)
                    *** THE CP-SCF HAS CONVERGED ***

Forming final perturbed densities           ... done
Transforming perturbed density to AO basis  ... done

 Raw HFC matrix (all values in MHz): 
 -----------------------------------
                 5.1202              -0.0204               2.8982
                -0.0204               6.3671             -14.5568
                 2.8982             -14.5568             246.0633

 A(FC)          85.9683              85.9683              85.9683
 A(SD)         -80.7664             -80.2568             161.0232
 A(ORB+DIA)     -0.1692              -0.1724              -0.0128    A(PC) =  -0.1181
 A(ORB)         -0.1696              -0.1728              -0.0127    A(PC) =  -0.1184
 A(DIA)          0.0004               0.0004              -0.0001    A(PC) =   0.0002
             ----------           ----------           ----------
 A(Tot)          5.0328               5.5391             246.9788    A(iso)=   85.8502
 Orientation: 
  X           0.9463885            0.3228090            0.0119655
  Y          -0.3215590            0.9449621           -0.0603855
  Z          -0.0307999            0.0533005            0.9981034

Notes:  (1) The A matrix conforms to the "SAI" spin Hamiltonian convention.
        (2) Tensor is right-handed.


--------------------------------------------------------------------------------
----------------------------------------------------------------------------
                           ORCA EULER ANGLE PROGRAM
----------------------------------------------------------------------------

Only g-tensor available        -->  using g-tensor as reference tensor

Reference tensor               ...  g

g-tensor ordering              ...  |g_min> --> |gx>
                                    |g_mid> --> |gy>
                                    |g_max> --> |gz>

A- and EFG-tensor ordering     ...  the axes |Ax>, |Qx>, |Ay>, etc. are assigned
                                    such that the Euler rotation is minimal. You
                                    can find the respective eigenvalues as Ax,
                                    EFGx, Ay, etc. in the tables below.
                                    The relation of |Ax>, |Ay>,  etc. to Amin, Amid, etc.
                                    (as printed in the ORCA EPR/NMR CALCULATION Output)
                                    is obtained in the detailed printout.

Euler rotation around          ...  z - y - z
   First rotation              -->  by alpha around z
   Second rotation             -->  by beta around y'
   Third rotation              -->  by gamma around z''
   Positive / Negative angle   -->  clockwise / counterclockwise rotation

Plot EFG-tensors                    (-)
Plot HFC-tensors                    (-)
Detailed Printout                   (-)

-------------------------------------------------------------------------
          Euler rotation of hyperfine tensor to g-tensor
-------------------------------------------------------------------------

-------------------------------------------------------------------
 Atom  |   Alpha    Beta    Gamma   |   Ax       Ay       Az 
       |          [degrees]         |           [MHz]         
-------------------------------------------------------------------
  1H      -90.2     22.2     90.1     -64.22   -26.42  -102.84
  2H       96.6      7.6    -97.3     -67.00  -105.86   -29.19
  3H       89.8     43.4    -91.0     -64.83   -27.21  -104.92
  0C      -91.5     11.6     90.8     246.98     5.54     5.03
-------------------------------------------------------------------


Maximum memory used throughout the entire EPRNMR-calculation: 67.6 MB

Timings for individual modules:

Sum of individual times         ...       17.014 sec (=   0.284 min)
GTO integral calculation        ...        2.105 sec (=   0.035 min)  12.4 %
Spin-Orbit-Coupling Matrices    ...        1.996 sec (=   0.033 min)  11.7 %
SCF iterations                  ...        6.780 sec (=   0.113 min)  39.8 %
EPR/NMR calculation             ...        6.133 sec (=   0.102 min)  36.0 %
                             ****ORCA TERMINATED NORMALLY****
TOTAL RUN TIME: 0 days 0 hours 0 minutes 19 seconds 321 msec
