Job execution start: Mon Oct 24 16:40:27 CEST 2022
Shared library path: /home/cs681498/orca:/opt/MPI/openmpi-4.1.1/linux/gcc_4.8.5/lib:/opt/MPI/openmpi-4.1.1/linux/gcc_4.8.5/lib/lib32
Slurm Job ID is: 30556087
Slurm Job name is: 0
ncm1024

                                 *****************
                                 * O   R   C   A *
                                 *****************

                                            #,                                       
                                            ###                                      
                                            ####                                     
                                            #####                                    
                                            ######                                   
                                           ########,                                 
                                     ,,################,,,,,                         
                               ,,#################################,,                 
                          ,,##########################################,,             
                       ,#########################################, ''#####,          
                    ,#############################################,,   '####,        
                  ,##################################################,,,,####,       
                ,###########''''           ''''###############################       
              ,#####''   ,,,,##########,,,,          '''####'''          '####       
            ,##' ,,,,###########################,,,                        '##       
           ' ,,###''''                  '''############,,,                           
         ,,##''                                '''############,,,,        ,,,,,,###''
      ,#''                                            '''#######################'''  
     '                                                          ''''####''''         
             ,#######,   #######,   ,#######,      ##                                
            ,#'     '#,  ##    ##  ,#'     '#,    #''#        ######   ,####,        
            ##       ##  ##   ,#'  ##            #'  '#       #        #'  '#        
            ##       ##  #######   ##           ,######,      #####,   #    #        
            '#,     ,#'  ##    ##  '#,     ,#' ,#      #,         ##   #,  ,#        
             '#######'   ##     ##  '#######'  #'      '#     #####' # '####'        



                  #######################################################
                  #                        -***-                        #
                  #          Department of theory and spectroscopy      #
                  #    Directorship and core code : Frank Neese         #
                  #        Max Planck Institute fuer Kohlenforschung    #
                  #                Kaiser Wilhelm Platz 1               #
                  #                 D-45470 Muelheim/Ruhr               #
                  #                      Germany                        #
                  #                                                     #
                  #                  All rights reserved                #
                  #                        -***-                        #
                  #######################################################


                         Program Version 5.0.3 -  RELEASE  -


 With contributions from (in alphabetic order):
   Daniel Aravena         : Magnetic Suceptibility
   Michael Atanasov       : Ab Initio Ligand Field Theory (pilot matlab implementation)
   Alexander A. Auer      : GIAO ZORA, VPT2 properties, NMR spectrum
   Ute Becker             : Parallelization
   Giovanni Bistoni       : ED, misc. LED, open-shell LED, HFLD
   Martin Brehm           : Molecular dynamics
   Dmytro Bykov           : SCF Hessian
   Vijay G. Chilkuri      : MRCI spin determinant printing, contributions to CSF-ICE
   Dipayan Datta          : RHF DLPNO-CCSD density
   Achintya Kumar Dutta   : EOM-CC, STEOM-CC
   Dmitry Ganyushin       : Spin-Orbit,Spin-Spin,Magnetic field MRCI
   Miquel Garcia          : C-PCM and meta-GGA Hessian, CC/C-PCM, Gaussian charge scheme
   Yang Guo               : DLPNO-NEVPT2, F12-NEVPT2, CIM, IAO-localization
   Andreas Hansen         : Spin unrestricted coupled pair/coupled cluster methods
   Benjamin Helmich-Paris : MC-RPA, TRAH-SCF, COSX integrals
   Lee Huntington         : MR-EOM, pCC
   Robert Izsak           : Overlap fitted RIJCOSX, COSX-SCS-MP3, EOM
   Marcus Kettner         : VPT2
   Christian Kollmar      : KDIIS, OOCD, Brueckner-CCSD(T), CCSD density, CASPT2, CASPT2-K
   Simone Kossmann        : Meta GGA functionals, TD-DFT gradient, OOMP2, MP2 Hessian
   Martin Krupicka        : Initial AUTO-CI
   Lucas Lang             : DCDCAS
   Marvin Lechner         : AUTO-CI (C++ implementation), FIC-MRCC
   Dagmar Lenk            : GEPOL surface, SMD
   Dimitrios Liakos       : Extrapolation schemes; Compound Job, initial MDCI parallelization
   Dimitrios Manganas     : Further ROCIS development; embedding schemes
   Dimitrios Pantazis     : SARC Basis sets
   Anastasios Papadopoulos: AUTO-CI, single reference methods and gradients
   Taras Petrenko         : DFT Hessian,TD-DFT gradient, ASA, ECA, R-Raman, ABS, FL, XAS/XES, NRVS
   Peter Pinski           : DLPNO-MP2, DLPNO-MP2 Gradient
   Christoph Reimann      : Effective Core Potentials
   Marius Retegan         : Local ZFS, SOC
   Christoph Riplinger    : Optimizer, TS searches, QM/MM, DLPNO-CCSD(T), (RO)-DLPNO pert. Triples
   Tobias Risthaus        : Range-separated hybrids, TD-DFT gradient, RPA, STAB
   Michael Roemelt        : Original ROCIS implementation
   Masaaki Saitow         : Open-shell DLPNO-CCSD energy and density
   Barbara Sandhoefer     : DKH picture change effects
   Avijit Sen             : IP-ROCIS
   Kantharuban Sivalingam : CASSCF convergence, NEVPT2, FIC-MRCI
   Bernardo de Souza      : ESD, SOC TD-DFT
   Georgi Stoychev        : AutoAux, RI-MP2 NMR, DLPNO-MP2 response
   Willem Van den Heuvel  : Paramagnetic NMR
   Boris Wezisla          : Elementary symmetry handling
   Frank Wennmohs         : Technical directorship


 We gratefully acknowledge several colleagues who have allowed us to
 interface, adapt or use parts of their codes:
   Stefan Grimme, W. Hujo, H. Kruse, P. Pracht,  : VdW corrections, initial TS optimization,
                  C. Bannwarth, S. Ehlert          DFT functionals, gCP, sTDA/sTD-DF
   Ed Valeev, F. Pavosevic, A. Kumar             : LibInt (2-el integral package), F12 methods
   Garnet Chan, S. Sharma, J. Yang, R. Olivares  : DMRG
   Ulf Ekstrom                                   : XCFun DFT Library
   Mihaly Kallay                                 : mrcc  (arbitrary order and MRCC methods)
   Jiri Pittner, Ondrej Demel                    : Mk-CCSD
   Frank Weinhold                                : gennbo (NPA and NBO analysis)
   Christopher J. Cramer and Donald G. Truhlar   : smd solvation model
   Lars Goerigk                                  : TD-DFT with DH, B97 family of functionals
   V. Asgeirsson, H. Jonsson                     : NEB implementation
   FAccTs GmbH                                   : IRC, NEB, NEB-TS, DLPNO-Multilevel, CI-OPT
                                                   MM, QMMM, 2- and 3-layer-ONIOM, Crystal-QMMM,
                                                   LR-CPCM, SF, NACMEs, symmetry and pop. for TD-DFT,
                                                   nearIR, NL-DFT gradient (VV10), updates on ESD,
                                                   ML-optimized integration grids
   S Lehtola, MJT Oliveira, MAL Marques          : LibXC Library
   Liviu Ungur et al                             : ANISO software


 Your calculation uses the libint2 library for the computation of 2-el integrals
 For citations please refer to: http://libint.valeyev.net

 Your ORCA version has been built with support for libXC version: 5.1.0
 For citations please refer to: https://tddft.org/programs/libxc/

 This ORCA versions uses:
   CBLAS   interface :  Fast vector & matrix operations
   LAPACKE interface :  Fast linear algebra routines
   SCALAPACK package :  Parallel linear algebra routines
   Shared memory     :  Shared parallel matrices
   BLAS/LAPACK       :  OpenBLAS 0.3.15  USE64BITINT DYNAMIC_ARCH NO_AFFINITY SkylakeX SINGLE_THREADED
        Core in use  :  SkylakeX
   Copyright (c) 2011-2014, The OpenBLAS Project


================================================================================

----- Orbital basis set information -----
Your calculation utilizes the basis: EPR-III
   V. Barone, in Recent Advances in Density Functional Methods, Part 1 (ed. D. P. Chong), World Scientific, Singapore, 1995, p. 287.
   N. Rega, M. Cossi and V. Barone, J. Chem. Phys. 105, 11060 (1996).

----- AuxJ basis set information -----
Your calculation utilizes the AutoAux generation procedure.
  G. L. Stoychev, A. A. Auer, F. Neese, J. Chem. Theory Comput. 13, 554 (2017)

----- AuxC basis set information -----
Your calculation utilizes the AutoAux generation procedure.
  G. L. Stoychev, A. A. Auer, F. Neese, J. Chem. Theory Comput. 13, 554 (2017)

----- AuxJK basis set information -----
Your calculation utilizes the AutoAux generation procedure.
  G. L. Stoychev, A. A. Auer, F. Neese, J. Chem. Theory Comput. 13, 554 (2017)

================================================================================
                                        WARNINGS
                       Please study these warnings very carefully!
================================================================================


WARNING: your system is open-shell and RHF/RKS was chosen
  ===> : WILL SWITCH to UHF/UKS


INFO   : the flag for use of the SHARK integral package has been found!

================================================================================
                                       INPUT FILE
================================================================================
NAME = /home/rwth0701/scratch/cs681498/orcajob__30556087-Hmx5/0.inp
|  1> !B3LYP EPR-III Autoaux
|  2> !PAL4
|  3> 
|  4> * xyz 0 2
|  5>  C     12.6022894301     -0.6266926546     -7.1846322451
|  6>  H     12.3092559322     -1.4837953326     -6.4853588307
|  7>  H     13.1769622509      0.2068786471     -6.7587485437
|  8>  H     12.0584043831     -0.4595369654     -8.0963961825
|  9> *
| 10> 
| 11> %EPRNMR
| 12>         GTENSOR   TRUE
| 13>         NUCLEI    = ALL H {AISO, ADIP, AORB}
| 14>         NUCLEI    = ALL C {AISO, ADIP, AORB}
| 15> END
| 16> 
| 17> 
| 18>                          ****END OF INPUT****
================================================================================

                       ****************************
                       * Single Point Calculation *
                       ****************************

---------------------------------
CARTESIAN COORDINATES (ANGSTROEM)
---------------------------------
  C     12.602289   -0.626693   -7.184632
  H     12.309256   -1.483795   -6.485359
  H     13.176962    0.206879   -6.758749
  H     12.058404   -0.459537   -8.096396

----------------------------
CARTESIAN COORDINATES (A.U.)
----------------------------
  NO LB      ZA    FRAG     MASS         X           Y           Z
   0 C     6.0000    0    12.011   23.814876   -1.184277  -13.576987
   1 H     1.0000    0     1.008   23.261123   -2.803967  -12.255552
   2 H     1.0000    0     1.008   24.900850    0.390944  -12.772184
   3 H     1.0000    0     1.008   22.787082   -0.868399  -15.299971

--------------------------------
INTERNAL COORDINATES (ANGSTROEM)
--------------------------------
 C      0   0   0     0.000000000000     0.00000000     0.00000000
 H      1   0   0     1.144323791421     0.00000000     0.00000000
 H      1   2   0     1.098392868286   117.74003785     0.00000000
 H      1   2   3     1.074739710965   120.35245764   201.44525900

---------------------------
INTERNAL COORDINATES (A.U.)
---------------------------
 C      0   0   0     0.000000000000     0.00000000     0.00000000
 H      1   0   0     2.162458574317     0.00000000     0.00000000
 H      1   2   0     2.075661708513   117.74003785     0.00000000
 H      1   2   3     2.030963718974   120.35245764   201.44525900

---------------------
BASIS SET INFORMATION
---------------------
There are 2 groups of distinct atoms

 Group   1 Type C   : 12s8p2d1f contracted to 8s5p2d1f pattern {51111111/41111/11/1}
 Group   2 Type H   : 7s2p contracted to 5s2p pattern {31111/11}

Atom   0C    basis set group =>   1
Atom   1H    basis set group =>   2
Atom   2H    basis set group =>   2
Atom   3H    basis set group =>   2
---------------------------------
AUXILIARY/J BASIS SET INFORMATION
---------------------------------
There are 2 groups of distinct atoms

 Group   1 Type C   : 20s17p16d8f3g contracted to 20s17p16d8f3g pattern {11111111111111111111/11111111111111111/1111111111111111/11111111/111}
 Group   2 Type H   : 17s7p3d contracted to 17s7p3d pattern {11111111111111111/1111111/111}

Atom   0C    basis set group =>   1
Atom   1H    basis set group =>   2
Atom   2H    basis set group =>   2
Atom   3H    basis set group =>   2
---------------------------------
AUXILIARY/C BASIS SET INFORMATION
---------------------------------
There are 2 groups of distinct atoms

 Group   1 Type C   : 20s17p16d8f3g contracted to 20s17p16d8f3g pattern {11111111111111111111/11111111111111111/1111111111111111/11111111/111}
 Group   2 Type H   : 17s7p3d contracted to 17s7p3d pattern {11111111111111111/1111111/111}

Atom   0C    basis set group =>   1
Atom   1H    basis set group =>   2
Atom   2H    basis set group =>   2
Atom   3H    basis set group =>   2
----------------------------------
AUXILIARY/JK BASIS SET INFORMATION
----------------------------------
There are 2 groups of distinct atoms

 Group   1 Type C   : 20s17p16d8f3g contracted to 20s17p16d8f3g pattern {11111111111111111111/11111111111111111/1111111111111111/11111111/111}
 Group   2 Type H   : 17s7p3d contracted to 17s7p3d pattern {11111111111111111/1111111/111}

Atom   0C    basis set group =>   1
Atom   1H    basis set group =>   2
Atom   2H    basis set group =>   2
Atom   3H    basis set group =>   2


           ************************************************************
           *        Program running with 4 parallel MPI-processes     *
           *              working on a common directory               *
           ************************************************************
------------------------------------------------------------------------------
                           ORCA GTO INTEGRAL CALCULATION
                           -- RI-GTO INTEGRALS CHOSEN --
------------------------------------------------------------------------------
------------------------------------------------------------------------------
                   ___                                                        
                  /   \      - P O W E R E D   B Y -                         
                 /     \                                                     
                 |  |  |   _    _      __       _____    __    __             
                 |  |  |  | |  | |    /  \     |  _  \  |  |  /  |          
                  \  \/   | |  | |   /    \    | | | |  |  | /  /          
                 / \  \   | |__| |  /  /\  \   | |_| |  |  |/  /          
                |  |  |   |  __  | /  /__\  \  |    /   |      \           
                |  |  |   | |  | | |   __   |  |    \   |  |\   \          
                \     /   | |  | | |  |  |  |  | |\  \  |  | \   \       
                 \___/    |_|  |_| |__|  |__|  |_| \__\ |__|  \__/        
                                                                              
                      - O R C A' S   B I G   F R I E N D -                    
                                      &                                       
                       - I N T E G R A L  F E E D E R -                       
                                                                              
 v1 FN, 2020, v2 2021                                                         
------------------------------------------------------------------------------


Reading SHARK input file /home/rwth0701/scratch/cs681498/orcajob__30556087-Hmx5/0.SHARKINP.tmp ... ok
----------------------
SHARK INTEGRAL PACKAGE
----------------------

Number of atoms                             ...      4
Number of basis functions                   ...     73
Number of shells                            ...     37
Maximum angular momentum                    ...      3
Integral batch strategy                     ... SHARK/LIBINT Hybrid
RI-J (if used) integral strategy            ... SPLIT-RIJ (Revised 2003 algorithm where possible)
Printlevel                                  ...      1
Contraction scheme used                     ... SEGMENTED contraction
Coulomb Range Separation                    ... NOT USED
Exchange Range Separation                   ... NOT USED
Finite Nucleus Model                        ... NOT USED
Auxiliary Coulomb fitting basis             ... AVAILABLE
   # of basis functions in Aux-J            ...    393
   # of shells in Aux-J                     ...    145
   Maximum angular momentum in Aux-J        ...      4
Auxiliary J/K fitting basis                 ... AVAILABLE
   # of basis functions in Aux-JK           ...    393
   # of shells in Aux-JK                    ...    145
   Maximum angular momentum in Aux-JK       ...      4
Auxiliary Correlation fitting basis         ... AVAILABLE
   # of basis functions in Aux-C            ...    393
   # of shells in Aux-C                     ...    145
   Maximum angular momentum in Aux-C        ...      4
Auxiliary 'external' fitting basis          ... NOT available
Integral threshold                          ...     1.000000e-10
Primitive cut-off                           ...     1.000000e-11
Primitive pair pre-selection threshold      ...     1.000000e-11

Calculating pre-screening integrals         ... done (  0.0 sec) Dimension = 37
Organizing shell pair data                  ... done (  0.0 sec)
Shell pair information
Total number of shell pairs                 ...       703
Shell pairs after pre-screening             ...       688
Total number of primitive shell pairs       ...      1300
Primitive shell pairs kept                  ...      1183
          la=0 lb=0:    261 shell pairs
          la=1 lb=0:    253 shell pairs
          la=1 lb=1:     66 shell pairs
          la=2 lb=0:     46 shell pairs
          la=2 lb=1:     22 shell pairs
          la=2 lb=2:      3 shell pairs
          la=3 lb=0:     23 shell pairs
          la=3 lb=1:     11 shell pairs
          la=3 lb=2:      2 shell pairs
          la=3 lb=3:      1 shell pairs

Calculating one electron integrals          ... done (  0.0 sec)
Calculating RI/J V-Matrix + Cholesky decomp.... done (  0.1 sec)
Calculating RI/JK V-Matrix + Cholesky decomp... done (  0.1 sec)
Calculating RI/C V-Matrix + Cholesky decomp.... done (  0.1 sec)
Calculating Nuclear repulsion               ... done (  0.0 sec) ENN=      9.453464281853 Eh

SHARK setup successfully completed in   0.8 seconds

Maximum memory used throughout the entire GTOINT-calculation: 13.7 MB


           ************************************************************
           *        Program running with 4 parallel MPI-processes     *
           *              working on a common directory               *
           ************************************************************
-------------------------------------------------------------------------------
                                 ORCA SCF
-------------------------------------------------------------------------------

------------
SCF SETTINGS
------------
Hamiltonian:
 Density Functional     Method          .... DFT(GTOs)
 Exchange Functional    Exchange        .... B88
   X-Alpha parameter    XAlpha          ....  0.666667
   Becke's b parameter  XBeta           ....  0.004200
 Correlation Functional Correlation     .... LYP
 LDA part of GGA corr.  LDAOpt          .... VWN-5
 Gradients option       PostSCFGGA      .... off
 Hybrid DFT is turned on
   Fraction HF Exchange ScalHFX         ....  0.200000
   Scaling of DF-GGA-X  ScalDFX         ....  0.720000
   Scaling of DF-GGA-C  ScalDFC         ....  0.810000
   Scaling of DF-LDA-C  ScalLDAC        ....  1.000000
   Perturbative correction              ....  0.000000
   Density functional embedding theory  .... OFF
   NL short-range parameter             ....  4.800000
 RI-approximation to the Coulomb term is turned on
   Number of AuxJ basis functions       .... 393
   RIJ-COSX (HFX calculated with COS-X)).... on


General Settings:
 Integral files         IntName         .... /home/rwth0701/scratch/cs681498/orcajob__30556087-Hmx5/0
 Hartree-Fock type      HFTyp           .... UHF
 Total Charge           Charge          ....    0
 Multiplicity           Mult            ....    2
 Number of Electrons    NEL             ....    9
 Basis Dimension        Dim             ....   73
 Nuclear Repulsion      ENuc            ....      9.4534642819 Eh

Convergence Acceleration:
 DIIS                   CNVDIIS         .... on
   Start iteration      DIISMaxIt       ....    12
   Startup error        DIISStart       ....  0.200000
   # of expansion vecs  DIISMaxEq       ....     5
   Bias factor          DIISBfac        ....   1.050
   Max. coefficient     DIISMaxC        ....  10.000
 Trust-Rad. Augm. Hess. CNVTRAH         .... auto
   Auto Start mean grad. ratio tolernc. ....  1.125000
   Auto Start start iteration           ....    20
   Auto Start num. interpolation iter.  ....    10
   Max. Number of Micro iterations      ....    16
   Max. Number of Macro iterations      .... Maxiter - #DIIS iter
   Number of Davidson start vectors     ....     2
   Converg. threshold I  (grad. norm)   ....   5.000e-05
   Converg. threshold II (energy diff.) ....   1.000e-06
   Grad. Scal. Fac. for Micro threshold ....   0.100
   Minimum threshold for Micro iter.    ....   0.010
   NR start threshold (gradient norm)   ....   0.001
   Initial trust radius                 ....   0.400
   Minimum AH scaling param. (alpha)    ....   1.000
   Maximum AH scaling param. (alpha)    .... 1000.000
   Orbital update algorithm             .... Taylor
   White noise on init. David. guess    .... on
   Maximum white noise                  ....   0.010
   Quad. conv. algorithm                .... NR
 SOSCF                  CNVSOSCF        .... off
 Level Shifting         CNVShift        .... on
   Level shift para.    LevelShift      ....    0.2500
   Turn off err/grad.   ShiftErr        ....    0.0010
 Zerner damping         CNVZerner       .... off
 Static damping         CNVDamp         .... on
   Fraction old density DampFac         ....    0.7000
   Max. Damping (<1)    DampMax         ....    0.9800
   Min. Damping (>=0)   DampMin         ....    0.0000
   Turn off err/grad.   DampErr         ....    0.1000
 Fernandez-Rico         CNVRico         .... off

SCF Procedure:
 Maximum # iterations   MaxIter         ....   125
 SCF integral mode      SCFMode         .... Direct
   Integral package                     .... SHARK and LIBINT hybrid scheme
 Reset frequency        DirectResetFreq ....    20
 Integral Threshold     Thresh          ....  1.000e-10 Eh
 Primitive CutOff       TCut            ....  1.000e-11 Eh

Convergence Tolerance:
 Convergence Check Mode ConvCheckMode   .... Total+1el-Energy
 Convergence forced     ConvForced      .... 0
 Energy Change          TolE            ....  1.000e-06 Eh
 1-El. energy change                    ....  1.000e-03 Eh
 DIIS Error             TolErr          ....  1.000e-06


Diagonalization of the overlap matrix:
Smallest eigenvalue                        ... 1.719e-03
Time for diagonalization                   ...    0.001 sec
Threshold for overlap eigenvalues          ... 1.000e-08
Number of eigenvalues below threshold      ... 0
Time for construction of square roots      ...    0.008 sec
Total time needed                          ...    0.013 sec

Time for model grid setup =    0.099 sec

------------------------------
INITIAL GUESS: MODEL POTENTIAL
------------------------------
Loading Hartree-Fock densities                     ... done
Calculating cut-offs                               ... done
Initializing the effective Hamiltonian             ... done
Setting up the integral package (SHARK)            ... done
Starting the Coulomb interaction                   ... done (   0.1 sec)
Reading the grid                                   ... done
Mapping shells                                     ... done
Starting the XC term evaluation                    ... done (   0.0 sec)
  promolecular density results
     # of electrons  =      8.998529733
     EX              =     -5.959193561
     EC              =     -0.259466076
     EX+EC           =     -6.218659637
Transforming the Hamiltonian                       ... done (   0.0 sec)
Diagonalizing the Hamiltonian                      ... done (   0.0 sec)
Back transforming the eigenvectors                 ... done (   0.0 sec)
Now organizing SCF variables                       ... done
                      ------------------
                      INITIAL GUESS DONE (   0.2 sec)
                      ------------------
-------------------
DFT GRID GENERATION
-------------------

General Integration Accuracy     IntAcc      ... 4.388
Radial Grid Type                 RadialGrid  ... OptM3 with GC (2021)
Angular Grid (max. ang.)         AngularGrid ... 4 (Lebedev-302)
Angular grid pruning method      GridPruning ... 4 (adaptive)
Weight generation scheme         WeightScheme... Becke
Basis function cutoff            BFCut       ... 1.0000e-10
Integration weight cutoff        WCut        ... 1.0000e-14
Angular grids for H and He will be reduced by one unit
Partially contracted basis set               ... off
Rotationally invariant grid construction     ... off

Total number of grid points                  ...    17072
Total number of batches                      ...      269
Average number of points per batch           ...       63
Average number of grid points per atom       ...     4268
Time for grid setup =    0.136 sec

--------------------
COSX GRID GENERATION
--------------------

GRIDX 1
-------
General Integration Accuracy     IntAcc      ... 3.816
Radial Grid Type                 RadialGrid  ... OptM3 with GC (2021)
Angular Grid (max. ang.)         AngularGrid ... 1 (Lebedev-50)
Angular grid pruning method      GridPruning ... 4 (adaptive)
Weight generation scheme         WeightScheme... Becke
Basis function cutoff            BFCut       ... 1.0000e-10
Integration weight cutoff        WCut        ... 1.0000e-14
Angular grids for H and He will be reduced by one unit
Partially contracted basis set               ... on
Rotationally invariant grid construction     ... off

Total number of grid points                  ...     2155
Total number of batches                      ...       35
Average number of points per batch           ...       61
Average number of grid points per atom       ...      539
UseSFitting                                  ... on

GRIDX 2
-------
General Integration Accuracy     IntAcc      ... 4.020
Radial Grid Type                 RadialGrid  ... OptM3 with GC (2021)
Angular Grid (max. ang.)         AngularGrid ... 2 (Lebedev-110)
Angular grid pruning method      GridPruning ... 4 (adaptive)
Weight generation scheme         WeightScheme... Becke
Basis function cutoff            BFCut       ... 1.0000e-10
Integration weight cutoff        WCut        ... 1.0000e-14
Angular grids for H and He will be reduced by one unit
Partially contracted basis set               ... on
Rotationally invariant grid construction     ... off

Total number of grid points                  ...     5071
Total number of batches                      ...       82
Average number of points per batch           ...       61
Average number of grid points per atom       ...     1268
UseSFitting                                  ... on

GRIDX 3
-------
General Integration Accuracy     IntAcc      ... 4.338
Radial Grid Type                 RadialGrid  ... OptM3 with GC (2021)
Angular Grid (max. ang.)         AngularGrid ... 3 (Lebedev-194)
Angular grid pruning method      GridPruning ... 4 (adaptive)
Weight generation scheme         WeightScheme... Becke
Basis function cutoff            BFCut       ... 1.0000e-10
Integration weight cutoff        WCut        ... 1.0000e-14
Angular grids for H and He will be reduced by one unit
Partially contracted basis set               ... on
Rotationally invariant grid construction     ... off

Total number of grid points                  ...    11742
Total number of batches                      ...      186
Average number of points per batch           ...       63
Average number of grid points per atom       ...     2936
UseSFitting                                  ... on

Time for X-Grid setup             =    0.200 sec

--------------
SCF ITERATIONS
--------------
ITER       Energy         Delta-E        Max-DP      RMS-DP      [F,P]     Damp
               ***  Starting incremental Fock matrix formation  ***
  0    -39.7873538637   0.000000000000 0.01434801  0.00047542  0.0819709 0.7000
  1    -39.8044041107  -0.017050247005 0.00905975  0.00035633  0.0413720 0.7000
                               ***Turning on DIIS***
  2    -39.8119171873  -0.007513076658 0.01674602  0.00062527  0.0170088 0.0000
  3    -39.8222268079  -0.010309620587 0.00656188  0.00026851  0.0250707 0.0000
  4    -39.8254065144  -0.003179706540 0.00254231  0.00007403  0.0047163 0.0000
  5    -39.8255340656  -0.000127551125 0.00089963  0.00003175  0.0014290 0.0000
  6    -39.8255514276  -0.000017362020 0.00052444  0.00002497  0.0005466 0.0000
               *** Restarting incremental Fock matrix formation ***
                                   *** Resetting DIIS ***
                 **** Energy Check signals convergence ****

               *****************************************************
               *                     SUCCESS                       *
               *           SCF CONVERGED AFTER   7 CYCLES          *
               *****************************************************

Old exchange energy                            =     -1.235822401 Eh
New exchange energy                            =     -1.235819796 Eh
Exchange energy change after final integration =      0.000002605 Eh
Total energy after final integration           =    -39.825549586 Eh
Final COS-X integration done in                =     0.179 sec

----------------
TOTAL SCF ENERGY
----------------

Total Energy       :          -39.82554959 Eh           -1083.70830 eV

Components:
Nuclear Repulsion  :            9.45346428 Eh             257.24184 eV
Electronic Energy  :          -49.27901387 Eh           -1340.95014 eV
One Electron Energy:          -71.24077923 Eh           -1938.56016 eV
Two Electron Energy:           21.96176536 Eh             597.61002 eV
Max COSX asymmetry :            0.00000005 Eh               0.00000 eV

Virial components:
Potential Energy   :          -79.35369165 Eh           -2159.32373 eV
Kinetic Energy     :           39.52814206 Eh            1075.61543 eV
Virial Ratio       :            2.00752394


DFT components:
N(Alpha)           :        4.999999694755 electrons
N(Beta)            :        4.000000201760 electrons
N(Total)           :        8.999999896515 electrons
E(X)               :       -4.893036566722 Eh       
E(C)               :       -0.308319964767 Eh       
E(XC)              :       -5.201356531488 Eh       
DFET-embed. en.    :        0.000000000000 Eh       

---------------
SCF CONVERGENCE
---------------

  Last Energy change         ...   -7.6353e-07  Tolerance :   1.0000e-06
  Last MAX-Density change    ...    0.0000e+00  Tolerance :   1.0000e-05
  Last RMS-Density change    ...    0.0000e+00  Tolerance :   1.0000e-06
  Last DIIS Error            ...    7.2110e-05  Tolerance :   1.0000e-06

             **** THE GBW FILE WAS UPDATED (/home/rwth0701/scratch/cs681498/orcajob__30556087-Hmx5/0.gbw) ****
             **** DENSITY /home/rwth0701/scratch/cs681498/orcajob__30556087-Hmx5/0.scfp WAS UPDATED ****
             **** ENERGY FILE WAS UPDATED (/home/rwth0701/scratch/cs681498/orcajob__30556087-Hmx5/0.en.tmp) ****
----------------------
UHF SPIN CONTAMINATION
----------------------

Warning: in a DFT calculation there is little theoretical justification to 
         calculate <S**2> as in Hartree-Fock theory. We will do it anyways
         but you should keep in mind that the values have only limited relevance

Expectation value of <S**2>     :     0.753656
Ideal value S*(S+1) for S=0.5   :     0.750000
Deviation                       :     0.003656

             **** THE GBW FILE WAS UPDATED (/home/rwth0701/scratch/cs681498/orcajob__30556087-Hmx5/0.gbw) ****
             **** DENSITY /home/rwth0701/scratch/cs681498/orcajob__30556087-Hmx5/0.scfp WAS UPDATED ****
----------------
ORBITAL ENERGIES
----------------
                 SPIN UP ORBITALS
  NO   OCC          E(Eh)            E(eV) 
   0   1.0000     -10.192562      -277.3537 
   1   1.0000      -0.681849       -18.5541 
   2   1.0000      -0.421755       -11.4765 
   3   1.0000      -0.410778       -11.1778 
   4   1.0000      -0.238396        -6.4871 
   5   0.0000      -0.000123        -0.0033 
   6   0.0000       0.036600         0.9959 
   7   0.0000       0.037240         1.0134 
   8   0.0000       0.047169         1.2835 
   9   0.0000       0.084426         2.2974 
  10   0.0000       0.090502         2.4627 
  11   0.0000       0.093006         2.5308 
  12   0.0000       0.222910         6.0657 
  13   0.0000       0.224862         6.1188 
  14   0.0000       0.248397         6.7592 
  15   0.0000       0.276957         7.5364 
  16   0.0000       0.290893         7.9156 
  17   0.0000       0.304409         8.2834 
  18   0.0000       0.335814         9.1380 
  19   0.0000       0.548119        14.9151 
  20   0.0000       0.553855        15.0712 
  21   0.0000       0.744651        20.2630 
  22   0.0000       0.748085        20.3564 
  23   0.0000       0.771262        20.9871 
  24   0.0000       0.829622        22.5752 
  25   0.0000       0.873944        23.7812 
  26   0.0000       0.883882        24.0517 
  27   0.0000       0.910943        24.7880 
  28   0.0000       0.986412        26.8416 
  29   0.0000       1.049831        28.5673 
  30   0.0000       1.060937        28.8696 
  31   0.0000       1.068864        29.0853 
  32   0.0000       1.193807        32.4851 
  33   0.0000       1.196638        32.5622 
  34   0.0000       1.448071        39.4040 
  35   0.0000       1.451999        39.5109 
  36   0.0000       1.463901        39.8348 
  37   0.0000       1.678996        45.6878 
  38   0.0000       1.704760        46.3889 
  39   0.0000       1.720368        46.8136 
  40   0.0000       2.742691        74.6324 
  41   0.0000       2.756706        75.0138 
  42   0.0000       2.873508        78.1921 
  43   0.0000       2.891186        78.6732 
  44   0.0000       2.926599        79.6368 
  45   0.0000       2.960382        80.5561 
  46   0.0000       2.995572        81.5137 
  47   0.0000       3.137680        85.3806 
  48   0.0000       3.152665        85.7884 
  49   0.0000       3.246393        88.3388 
  50   0.0000       3.260155        88.7133 
  51   0.0000       3.689205       100.3884 
  52   0.0000       3.741571       101.8133 
  53   0.0000       3.822922       104.0270 
  54   0.0000       3.856187       104.9322 
  55   0.0000       3.953273       107.5740 
  56   0.0000       4.019375       109.3727 
  57   0.0000       4.093418       111.3876 
  58   0.0000       4.096315       111.4664 
  59   0.0000       4.109763       111.8323 
  60   0.0000       4.565649       124.2376 
  61   0.0000       4.984560       135.6368 
  62   0.0000       5.251048       142.8883 
  63   0.0000       5.364465       145.9745 
  64   0.0000       5.484710       149.2465 
  65   0.0000       6.007370       163.4688 
  66   0.0000       6.089079       165.6923 
  67   0.0000       7.671190       208.7437 
  68   0.0000      29.033587       790.0441 
  69   0.0000      37.050564      1008.1971 
  70   0.0000      37.183678      1011.8193 
  71   0.0000      37.201475      1012.3036 
  72   0.0000     133.482019      3632.2304 

                 SPIN DOWN ORBITALS
  NO   OCC          E(Eh)            E(eV) 
   0   1.0000     -10.177942      -276.9559 
   1   1.0000      -0.642786       -17.4911 
   2   1.0000      -0.412153       -11.2152 
   3   1.0000      -0.401538       -10.9264 
   4   0.0000      -0.079209        -2.1554 
   5   0.0000       0.003121         0.0849 
   6   0.0000       0.036269         0.9869 
   7   0.0000       0.036926         1.0048 
   8   0.0000       0.060327         1.6416 
   9   0.0000       0.086648         2.3578 
  10   0.0000       0.091838         2.4990 
  11   0.0000       0.097093         2.6420 
  12   0.0000       0.224248         6.1021 
  13   0.0000       0.226153         6.1539 
  14   0.0000       0.267226         7.2716 
  15   0.0000       0.296759         8.0752 
  16   0.0000       0.309702         8.4274 
  17   0.0000       0.311510         8.4766 
  18   0.0000       0.349079         9.4989 
  19   0.0000       0.572556        15.5800 
  20   0.0000       0.579197        15.7607 
  21   0.0000       0.746814        20.3218 
  22   0.0000       0.750363        20.4184 
  23   0.0000       0.800570        21.7846 
  24   0.0000       0.827625        22.5208 
  25   0.0000       0.878368        23.9016 
  26   0.0000       0.887937        24.1620 
  27   0.0000       0.926925        25.2229 
  28   0.0000       1.007076        27.4039 
  29   0.0000       1.072337        29.1798 
  30   0.0000       1.082349        29.4522 
  31   0.0000       1.125769        30.6337 
  32   0.0000       1.205940        32.8153 
  33   0.0000       1.209277        32.9061 
  34   0.0000       1.456976        39.6463 
  35   0.0000       1.461632        39.7730 
  36   0.0000       1.483906        40.3791 
  37   0.0000       1.689588        45.9760 
  38   0.0000       1.712363        46.5958 
  39   0.0000       1.725749        46.9600 
  40   0.0000       2.781273        75.6823 
  41   0.0000       2.794391        76.0393 
  42   0.0000       2.892342        78.7046 
  43   0.0000       2.931753        79.7771 
  44   0.0000       2.955918        80.4346 
  45   0.0000       2.966994        80.7360 
  46   0.0000       3.048311        82.9488 
  47   0.0000       3.189171        86.7818 
  48   0.0000       3.201557        87.1188 
  49   0.0000       3.305968        89.9600 
  50   0.0000       3.318898        90.3118 
  51   0.0000       3.734348       101.6168 
  52   0.0000       3.755568       102.1942 
  53   0.0000       3.823266       104.0364 
  54   0.0000       3.859260       105.0158 
  55   0.0000       3.966698       107.9393 
  56   0.0000       4.033916       109.7684 
  57   0.0000       4.097268       111.4923 
  58   0.0000       4.103303       111.6565 
  59   0.0000       4.133787       112.4861 
  60   0.0000       4.566123       124.2505 
  61   0.0000       5.006018       136.2207 
  62   0.0000       5.252021       142.9148 
  63   0.0000       5.363936       145.9601 
  64   0.0000       5.481816       149.1678 
  65   0.0000       6.009485       163.5264 
  66   0.0000       6.092825       165.7942 
  67   0.0000       7.705482       209.6768 
  68   0.0000      29.060318       790.7715 
  69   0.0000      37.039463      1007.8950 
  70   0.0000      37.172737      1011.5216 
  71   0.0000      37.190916      1012.0163 
  72   0.0000     133.490195      3632.4529 

                    ********************************
                    * MULLIKEN POPULATION ANALYSIS *
                    ********************************

--------------------------------------------
MULLIKEN ATOMIC CHARGES AND SPIN POPULATIONS
--------------------------------------------
   0 C :   -0.421175    1.099534
   1 H :    0.137776   -0.035367
   2 H :    0.139682   -0.032925
   3 H :    0.143717   -0.031241
Sum of atomic charges         :    0.0000000
Sum of atomic spin populations:    1.0000000

-----------------------------------------------------
MULLIKEN REDUCED ORBITAL CHARGES AND SPIN POPULATIONS
-----------------------------------------------------
CHARGE
  0 C s       :     3.350624  s :     3.350624
      pz      :     1.027085  p :     3.042864
      px      :     0.993173
      py      :     1.022606
      dz2     :     0.002821  d :     0.024929
      dxz     :     0.006710
      dyz     :     0.008121
      dx2y2   :     0.002414
      dxy     :     0.004863
      f0      :     0.000269  f :     0.002757
      f+1     :     0.000689
      f-1     :     0.000192
      f+2     :     0.000511
      f-2     :     0.000558
      f+3     :     0.000466
      f-3     :     0.000072
  1 H s       :     0.837935  s :     0.837935
      pz      :     0.007746  p :     0.024288
      px      :     0.008185
      py      :     0.008357
  2 H s       :     0.834148  s :     0.834148
      pz      :     0.007541  p :     0.026170
      px      :     0.009382
      py      :     0.009247
  3 H s       :     0.828983  s :     0.828983
      pz      :     0.009576  p :     0.027301
      px      :     0.009968
      py      :     0.007757

SPIN
  0 C s       :     0.076481  s :     0.076481
      pz      :     0.198336  p :     1.027383
      px      :     0.592760
      py      :     0.236287
      dz2     :     0.000350  d :    -0.003064
      dxz     :    -0.001424
      dyz     :    -0.000158
      dx2y2   :    -0.000391
      dxy     :    -0.001442
      f0      :     0.000003  f :    -0.001267
      f+1     :    -0.000378
      f-1     :    -0.000160
      f+2     :    -0.000151
      f-2     :    -0.000131
      f+3     :    -0.000427
      f-3     :    -0.000022
  1 H s       :    -0.044235  s :    -0.044235
      pz      :     0.001199  p :     0.008868
      px      :     0.005306
      py      :     0.002362
  2 H s       :    -0.042465  s :    -0.042465
      pz      :     0.001368  p :     0.009539
      px      :     0.006529
      py      :     0.001642
  3 H s       :    -0.041336  s :    -0.041336
      pz      :     0.002259  p :     0.010095
      px      :     0.005819
      py      :     0.002016


                     *******************************
                     * LOEWDIN POPULATION ANALYSIS *
                     *******************************

-------------------------------------------
LOEWDIN ATOMIC CHARGES AND SPIN POPULATIONS
-------------------------------------------
   0 C :   -0.170754    0.917199
   1 H :    0.074010    0.021685
   2 H :    0.053869    0.028673
   3 H :    0.042875    0.032442

----------------------------------------------------
LOEWDIN REDUCED ORBITAL CHARGES AND SPIN POPULATIONS
----------------------------------------------------
CHARGE
  0 C s       :     2.903079  s :     2.903079
      pz      :     1.099345  p :     3.167932
      px      :     0.983957
      py      :     1.084630
      dz2     :     0.014095  d :     0.092448
      dxz     :     0.021557
      dyz     :     0.032800
      dx2y2   :     0.008739
      dxy     :     0.015256
      f0      :     0.000750  f :     0.007295
      f+1     :     0.001794
      f-1     :     0.000822
      f+2     :     0.000936
      f-2     :     0.001106
      f+3     :     0.001677
      f-3     :     0.000210
  1 H s       :     0.799206  s :     0.799206
      pz      :     0.042856  p :     0.126784
      px      :     0.034532
      py      :     0.049397
  2 H s       :     0.805288  s :     0.805288
      pz      :     0.038062  p :     0.140843
      px      :     0.045934
      py      :     0.056847
  3 H s       :     0.808755  s :     0.808755
      pz      :     0.062173  p :     0.148370
      px      :     0.050361
      py      :     0.035836

SPIN
  0 C s       :     0.027021  s :     0.027021
      pz      :     0.164520  p :     0.898301
      px      :     0.533598
      py      :     0.200182
      dz2     :    -0.000454  d :    -0.006912
      dxz     :    -0.002112
      dyz     :    -0.001965
      dx2y2   :    -0.000722
      dxy     :    -0.001661
      f0      :     0.000057  f :    -0.001211
      f+1     :    -0.000378
      f-1     :    -0.000170
      f+2     :    -0.000177
      f-2     :    -0.000172
      f+3     :    -0.000429
      f-3     :     0.000059
  1 H s       :    -0.018110  s :    -0.018110
      pz      :     0.007880  p :     0.039795
      px      :     0.021515
      py      :     0.010401
  2 H s       :    -0.016211  s :    -0.016211
      pz      :     0.007858  p :     0.044884
      px      :     0.025937
      py      :     0.011089
  3 H s       :    -0.015405  s :    -0.015405
      pz      :     0.011327  p :     0.047847
      px      :     0.026709
      py      :     0.009811


                      *****************************
                      * MAYER POPULATION ANALYSIS *
                      *****************************

  NA   - Mulliken gross atomic population
  ZA   - Total nuclear charge
  QA   - Mulliken gross atomic charge
  VA   - Mayer's total valence
  BVA  - Mayer's bonded valence
  FA   - Mayer's free valence

  ATOM       NA         ZA         QA         VA         BVA        FA
  0 C      6.4212     6.0000    -0.4212     3.8659     2.9229     0.9429
  1 H      0.8622     1.0000     0.1378     0.9823     0.9802     0.0020
  2 H      0.8603     1.0000     0.1397     0.9810     0.9791     0.0019
  3 H      0.8563     1.0000     0.1437     0.9815     0.9796     0.0018

  Mayer bond orders larger than 0.100000
B(  0-C ,  1-H ) :   0.9742 B(  0-C ,  2-H ) :   0.9746 B(  0-C ,  3-H ) :   0.9741 


-------
TIMINGS
-------

Total SCF time: 0 days 0 hours 0 min 4 sec 

Total time                  ....       4.267 sec
Sum of individual times     ....       3.738 sec  ( 87.6%)

Fock matrix formation       ....       3.019 sec  ( 70.7%)
  Split-RI-J                ....       0.424 sec  ( 14.1% of F)
  Chain of spheres X        ....       0.802 sec  ( 26.6% of F)
  XC integration            ....       1.150 sec  ( 38.1% of F)
    Basis function eval.    ....       0.101 sec  (  8.8% of XC)
    Density eval.           ....       0.111 sec  (  9.7% of XC)
    XC-Functional eval.     ....       0.103 sec  (  8.9% of XC)
    XC-Potential eval.      ....       0.143 sec  ( 12.5% of XC)
Diagonalization             ....       0.034 sec  (  0.8%)
Density matrix formation    ....       0.002 sec  (  0.0%)
Population analysis         ....       0.058 sec  (  1.4%)
Initial guess               ....       0.129 sec  (  3.0%)
Orbital Transformation      ....       0.000 sec  (  0.0%)
Orbital Orthonormalization  ....       0.000 sec  (  0.0%)
DIIS solution               ....       0.062 sec  (  1.5%)
Grid generation             ....       0.435 sec  ( 10.2%)

Maximum memory used throughout the entire SCF-calculation: 59.0 MB

-------------------------   --------------------
FINAL SINGLE POINT ENERGY       -39.825549586104
-------------------------   --------------------

   --->>> g-tensor requested, so NeedSOC=true

                            ***************************************
                            *     ORCA property calculations      *
                            ***************************************

                                    ---------------------
                                    Active property flags
                                    ---------------------
   (+) Dipole Moment
   (+) g-tensor
   (+) Nuclear properties (Hyperfine,Quadrupole)
   (+) Spin-Orbit Integrals are needed


------------------------------------------------------------------------------
                       ORCA ELECTRIC PROPERTIES CALCULATION
------------------------------------------------------------------------------

Dipole Moment Calculation                       ... on
Quadrupole Moment Calculation                   ... off
Polarizability Calculation                      ... off
GBWName                                         ... /home/rwth0701/scratch/cs681498/orcajob__30556087-Hmx5/0.gbw
Electron density                                ... /home/rwth0701/scratch/cs681498/orcajob__30556087-Hmx5/0.scfp
The origin for moment calculation is the CENTER OF MASS  = (23.781651, -1.166081 -13.549952)

-------------
DIPOLE MOMENT
-------------
                                X             Y             Z
Electronic contribution:      0.12271      -0.05590      -0.12371
Nuclear contribution   :     -0.19655       0.10764       0.15993
                        -----------------------------------------
Total Dipole Moment    :     -0.07384       0.05175       0.03622
                        -----------------------------------------
Magnitude (a.u.)       :      0.09717
Magnitude (Debye)      :      0.24698



--------------------
Rotational spectrum 
--------------------
 
Rotational constants in cm-1:     9.410389     8.713051     4.610484 
Rotational constants in MHz : 282116.359741 261210.709426 138218.833240 

 Dipole components along the rotational axes: 
x,y,z [a.u.] :    -0.007649     0.000821     0.096864 
x,y,z [Debye]:    -0.019441     0.002086     0.246208 

 


           ************************************************************
           *        Program running with 4 parallel MPI-processes     *
           *              working on a common directory               *
           ************************************************************
------------------------------------------------------------------------------
                         ORCA SPIN-ORBIT COUPLING CALCULATION
------------------------------------------------------------------------------

GBW file                                    ... /home/rwth0701/scratch/cs681498/orcajob__30556087-Hmx5/0.gbw
Input density                               ... /home/rwth0701/scratch/cs681498/orcajob__30556087-Hmx5/0.scfp
Output integrals                            ... /home/rwth0701/scratch/cs681498/orcajob__30556087-Hmx5/0
Operator type                               ... Mean-field/Effective potential
   One-Electron Terms                       ... 1
   Coulomb Contribution                     ... 3
   Exchange Contribution                    ... 3
   Correlation Contribution                 ... 0
   Maximum number of centers                ... 4
SHARK 2-electron RIJ-SOMF                   ... done (  0.1 sec)
SHARK 1-electron  MaxCenter=4               ... done (  0.0 sec)
SHARK 2-electron DoJ,X=0,1 MaxCenter=1      ... done (  0.1 sec)

Maximum memory used throughout the entire SOC-calculation: 11.3 MB
Total time for SOC:  2.431


           ************************************************************
           *        Program running with 4 parallel MPI-processes     *
           *              working on a common directory               *
           ************************************************************
------------------------------------------------------------------------------
                                ORCA EPR/NMR CALCULATION
------------------------------------------------------------------------------

GBWName                      ... /home/rwth0701/scratch/cs681498/orcajob__30556087-Hmx5/0.gbw
Electron density             ... /home/rwth0701/scratch/cs681498/orcajob__30556087-Hmx5/0.scfp
Spin density                 ... /home/rwth0701/scratch/cs681498/orcajob__30556087-Hmx5/0.scfr
Spin-orbit integrals         ... /home/rwth0701/scratch/cs681498/orcajob__30556087-Hmx5/0
Treatment of gauge           ... GIAO (approximations 1/2el = 0,0)
Details of the CP(SCF) procedure:
       Solver   = POPLE   
       MaxIter  =    64   
       Tolerance=    1.000e-03
       COSX Grid=     1   
       Op-0     =   0-  4 =>   5- 72
       Op-1     =   0-  3 =>   4- 72
Multiplicity                 ... 2
g-tensor                     ... 1
NMR chemical shifts          ... 0
NMR spin-spin couplings      ... 0
NMR spectrum                 ... 0
Number of nuclei for epr/nmr ... 4
   Nucleus:   1H 
       Hyperfine : Isotope=    1 I=   0.500 P= 533.551
       Quadrupole: Isotope=    2 I=   1.000 Q=   0.003
       Spin-Orbit: Zeff=   1.000
       Nuclear Spin-Spin: Gn=   0.000
       EPRNMR Input: 
       rho(0)=N f(grad)=N a(iso)=Y a(dip)=Y a(orb)=Y sigma(nmr)=N spin-spin(nmr)=all-N,DSO-N,PSO-N,FC-N,SD-N
   Nucleus:   2H 
       Hyperfine : Isotope=    1 I=   0.500 P= 533.551
       Quadrupole: Isotope=    2 I=   1.000 Q=   0.003
       Spin-Orbit: Zeff=   1.000
       Nuclear Spin-Spin: Gn=   0.000
       EPRNMR Input: 
       rho(0)=N f(grad)=N a(iso)=Y a(dip)=Y a(orb)=Y sigma(nmr)=N spin-spin(nmr)=all-N,DSO-N,PSO-N,FC-N,SD-N
   Nucleus:   3H 
       Hyperfine : Isotope=    1 I=   0.500 P= 533.551
       Quadrupole: Isotope=    2 I=   1.000 Q=   0.003
       Spin-Orbit: Zeff=   1.000
       Nuclear Spin-Spin: Gn=   0.000
       EPRNMR Input: 
       rho(0)=N f(grad)=N a(iso)=Y a(dip)=Y a(orb)=Y sigma(nmr)=N spin-spin(nmr)=all-N,DSO-N,PSO-N,FC-N,SD-N
   Nucleus:   0C 
       Hyperfine : Isotope=   13 I=   0.500 P= 134.190
       Quadrupole: Isotope=   13 I=   0.500 Q=   0.000
       Spin-Orbit: Zeff=   3.600
       Nuclear Spin-Spin: Gn=   0.000
       EPRNMR Input: 
       rho(0)=N f(grad)=N a(iso)=Y a(dip)=Y a(orb)=Y sigma(nmr)=N spin-spin(nmr)=all-N,DSO-N,PSO-N,FC-N,SD-N
Forming RHS of the CP-SCF equations         ... 
Calculating right hand sides for GIAO treatment        ... 
  Entering RightHandSide GIAO. ScalHFX=    0.2000 NeedHFX=1
     -> 1-electron GIAO integrals will be done analytically
     -> RIJCOSX used in SCF. Same chosen for GIAO calculation.
     Making grid for GIAO integrations   ...

GRID GIAO
---------

General Integration Accuracy     IntAcc      ... 4.388
Radial Grid Type                 RadialGrid  ... OptM3 with GC (2021)
Angular Grid (max. ang.)         AngularGrid ... 4 (Lebedev-302)
Angular grid pruning method      GridPruning ... 4 (adaptive)
Weight generation scheme         WeightScheme... Becke
Basis function cutoff            BFCut       ... 1.0000e-10
Integration weight cutoff        WCut        ... 1.0000e-14
Angular grids for H and He will be reduced by one unit
Partially contracted basis set               ... off
Rotationally invariant grid construction     ... off

Total number of grid points                  ...    17072
Total number of batches                      ...      269
Average number of points per batch           ...       63
Average number of grid points per atom       ...     4268

  One-electron GIAO integrals (SHARK)     ... done
  Calculating G(B)[P]                     ... (RI-J: SHARK-ok) (COSX-ok) (add-J+K:ok) => dG/dB done
  DFT XC-terms                            ... done
  Extracting occupied and virtual blocks  ... 
  Operator  0  NO=   5 NV=  68 
  Operator  1  NO=   4 NV=  69 
  Transforming and RHS contribution       ... done
  Adding eps_i * S(B)_ai terms            ... done
  Projecting overlap derivatives          ... done
  Building G[dS/dB_ij] (COSX)             ... done
  Transforming to MO basis                ... done
  Summing G[dS/dB_ij] into RHS contribs.  ... done

  GIAO profiling information: 
    Total GIAO time               ...       0.8 sec
       GIAO 1-electron integrals  ...       0.0 sec (  0.5%)
       GIAO G(dS/dB) terms        ...       0.1 sec ( 12.1%)
       GIAO RI-J                  ...       0.1 sec ( 12.4%)
       GIAO COSX                  ...       0.1 sec ( 18.3%)
       GIAO XC-terms              ...       0.3 sec ( 38.3%)

  GIAO right hand side done


------------------------------------------------------------------------------
                           ORCA CP-SCF CALCULATION
------------------------------------------------------------------------------

Input orbitals are from        ... /home/rwth0701/scratch/cs681498/orcajob__30556087-Hmx5/0.gbw
Input Perturbation             ... /home/rwth0701/scratch/cs681498/orcajob__30556087-Hmx5/0.pin.tmp
Wavefunction output            ... /home/rwth0701/scratch/cs681498/orcajob__30556087-Hmx5/0.pout.tmp
Perturbation mode              ... Imaginary perturbation
Solver                         ... POPLE
Max. number of iterations      ... 64
Convergence tolerance          ... 1.000e-03
Integral handling              ... Direct
DFT GridXC                     ... 1
COSX GridX                     ... 1
COSX IntAccX                   ... 3.067
COSX Algorithm                 ... Auto
Number of perturbations        ... 3
Number of operators            ... 2
Orbital ranges used for CP-SCF:
 Operator 0:  Orbitals   0...  4  to   5... 72
 Operator 1:  Orbitals   0...  3  to   4... 72
Variables per perturbation     ... 616
DFT calculation                         ... on
XC functional terms                     ... off
Hybrid DFT                              ... on
   Exchange mixing (SCF)                ...  0.200
   Exchange mixing (CP-SCF)             ...  0.200
   GGA exch. scaling(SCF)               ...  0.720
   GGA exch. scaling (CP-SCF)           ...  0.720
   GGA corr. scaling (SCF)              ...  0.810
   GGA corr. scaling (CP-SCF)           ...  0.810

CP-SCF GRID
-----------

General Integration Accuracy     IntAcc      ... 3.467
Radial Grid Type                 RadialGrid  ... OptM3 with GC (2021)
Angular Grid (max. ang.)         AngularGrid ... 1 (Lebedev-50)
Angular grid pruning method      GridPruning ... 4 (adaptive)
Weight generation scheme         WeightScheme... Becke
Basis function cutoff            BFCut       ... 1.0000e-10
Integration weight cutoff        WCut        ... 1.0000e-14
Angular grids for H and He will be reduced by one unit
Partially contracted basis set               ... off
Rotationally invariant grid construction     ... off

Total number of grid points                  ...     2345
Total number of batches                      ...       38
Average number of points per batch           ...       61
Average number of grid points per atom       ...      586

CP-SCF GRIDX
------------

General Integration Accuracy     IntAcc      ... 3.067
Radial Grid Type                 RadialGrid  ... OptM3 with GC (2021)
Angular Grid (max. ang.)         AngularGrid ... 1 (Lebedev-50)
Angular grid pruning method      GridPruning ... 4 (adaptive)
Weight generation scheme         WeightScheme... Becke
Basis function cutoff            BFCut       ... 1.0000e-10
Integration weight cutoff        WCut        ... 1.0000e-14
Angular grids for H and He will be reduced by one unit
Partially contracted basis set               ... on
Rotationally invariant grid construction     ... off

Total number of grid points                  ...     1077
Total number of batches                      ...       20
Average number of points per batch           ...       53
Average number of grid points per atom       ...      269

Memory available               ... 1014.6 MB
Memory needed per perturbation ...   0.4 MB
Perturbations treated per batch... 3
Number of batches              ... 1
     CP-SCF ITERATION   0:   1.2696e+00 (   0.1 sec   0/  3 done)
     CP-SCF ITERATION   1:   3.2686e-02 (   0.1 sec   0/  3 done)
     CP-SCF ITERATION   2:   2.2242e-03 (   0.1 sec   0/  3 done)
     CP-SCF ITERATION   3:   9.1506e-05 (   0.1 sec   3/  3 done)
                    *** THE CP-SCF HAS CONVERGED ***

Forming final perturbed densities           ... done
Transforming perturbed density to AO basis  ... done

Magnetic field perturbation calculated in  1.292 sec
GIAO: Diamagnetic terms      (analytic)     (SHARK) ... done
GIAO: 1el-Paramagnetic terms (analytic)     (SHARK) ... done

-------------------
ELECTRONIC G-MATRIX
-------------------

 The g-matrix: 
              2.0024779    0.0002354    0.0001975
              0.0002245    2.0027234   -0.0001302
              0.0001960   -0.0001364    2.0027467

 gel          2.0023193    2.0023193    2.0023193
 gRMC        -0.0001283   -0.0001283   -0.0001283
 gDSO(tot)    0.0000345    0.0000702    0.0000701
 gPSO(tot)    0.0000052    0.0005851    0.0006098
             ----------   ----------   ----------
 g(tot)       2.0022308    2.0028463    2.0028709 iso=  2.0026493
 Delta-g     -0.0000885    0.0005271    0.0005516 iso=  0.0003301
 Orientation: 
  X           0.7745251    0.6048254   -0.1851948
  Y          -0.4746937    0.3622704   -0.8021384
  Z          -0.4180631    0.7091871    0.5676944

Notes:  (1) The g-matrix conforms to the "BgS" spin Hamiltonian convention. 
        (2) The principal values are square roots of the eigenvalues of g*gT.
        (3) Orientations are eigenvectors of g*gT written as column vectors.
        (4) Individual contributions are projections of the full matrices onto the eigenvectors of g*gT.
        (5) Tensor is right-handed.


-----------------------------------------
ELECTRIC AND MAGNETIC HYPERFINE STRUCTURE
-----------------------------------------

 -----------------------------------------------------------
 Nucleus   1H : A:ISTP=    1 I=  0.5 P=533.5514 MHz/au**3
                Q:ISTP=    2 I=  1.0 Q=  0.0029 barn     
 -----------------------------------------------------------
 Solving for nuclear perturbation:
Forming RHS of the CP-SCF equations         ... 
Calc. nucleus orbit integrals (SHARK)       ... done

------------------------------------------------------------------------------
                           ORCA CP-SCF CALCULATION
------------------------------------------------------------------------------

Input orbitals are from        ... /home/rwth0701/scratch/cs681498/orcajob__30556087-Hmx5/0.gbw
Input Perturbation             ... /home/rwth0701/scratch/cs681498/orcajob__30556087-Hmx5/0.pin.tmp
Wavefunction output            ... /home/rwth0701/scratch/cs681498/orcajob__30556087-Hmx5/0.pout.tmp
Perturbation mode              ... Imaginary perturbation
Solver                         ... POPLE
Max. number of iterations      ... 64
Convergence tolerance          ... 1.000e-03
Integral handling              ... Direct
DFT GridXC                     ... 1
COSX GridX                     ... 1
COSX IntAccX                   ... 3.067
COSX Algorithm                 ... Auto
Number of perturbations        ... 3
Number of operators            ... 2
Orbital ranges used for CP-SCF:
 Operator 0:  Orbitals   0...  4  to   5... 72
 Operator 1:  Orbitals   0...  3  to   4... 72
Variables per perturbation     ... 616
DFT calculation                         ... on
XC functional terms                     ... off
Hybrid DFT                              ... on
   Exchange mixing (SCF)                ...  0.200
   Exchange mixing (CP-SCF)             ...  0.200
   GGA exch. scaling(SCF)               ...  0.720
   GGA exch. scaling (CP-SCF)           ...  0.720
   GGA corr. scaling (SCF)              ...  0.810
   GGA corr. scaling (CP-SCF)           ...  0.810

CP-SCF GRID
-----------

General Integration Accuracy     IntAcc      ... 3.467
Radial Grid Type                 RadialGrid  ... OptM3 with GC (2021)
Angular Grid (max. ang.)         AngularGrid ... 1 (Lebedev-50)
Angular grid pruning method      GridPruning ... 4 (adaptive)
Weight generation scheme         WeightScheme... Becke
Basis function cutoff            BFCut       ... 1.0000e-10
Integration weight cutoff        WCut        ... 1.0000e-14
Angular grids for H and He will be reduced by one unit
Partially contracted basis set               ... off
Rotationally invariant grid construction     ... off

Total number of grid points                  ...     2345
Total number of batches                      ...       38
Average number of points per batch           ...       61
Average number of grid points per atom       ...      586

CP-SCF GRIDX
------------

General Integration Accuracy     IntAcc      ... 3.067
Radial Grid Type                 RadialGrid  ... OptM3 with GC (2021)
Angular Grid (max. ang.)         AngularGrid ... 1 (Lebedev-50)
Angular grid pruning method      GridPruning ... 4 (adaptive)
Weight generation scheme         WeightScheme... Becke
Basis function cutoff            BFCut       ... 1.0000e-10
Integration weight cutoff        WCut        ... 1.0000e-14
Angular grids for H and He will be reduced by one unit
Partially contracted basis set               ... on
Rotationally invariant grid construction     ... off

Total number of grid points                  ...     1077
Total number of batches                      ...       20
Average number of points per batch           ...       53
Average number of grid points per atom       ...      269

Memory available               ... 968.0 MB
Memory needed per perturbation ...   0.4 MB
Perturbations treated per batch... 3
Number of batches              ... 1
     CP-SCF ITERATION   0:   5.2798e-02 (   0.1 sec   0/  3 done)
     CP-SCF ITERATION   1:   2.2651e-03 (   0.1 sec   0/  3 done)
     CP-SCF ITERATION   2:   1.8262e-04 (   0.1 sec   3/  3 done)
                    *** THE CP-SCF HAS CONVERGED ***

Forming final perturbed densities           ... done
Transforming perturbed density to AO basis  ... done

 Raw HFC matrix (all values in MHz): 
 -----------------------------------
               -71.5629               0.2650             -20.3368
                 0.2648             -45.7450             -26.1720
               -20.3366             -26.1718             -64.0992

 A(FC)         -60.4822             -60.4822             -60.4822
 A(SD)          36.6106              -1.8616             -34.7491
 A(ORB+DIA)      0.0123              -0.0005               0.0276    A(PC) =   0.0131
 A(ORB)          0.0081               0.0005               0.0265    A(PC) =   0.0117
 A(DIA)          0.0042              -0.0010               0.0011    A(PC) =   0.0014
             ----------           ----------           ----------
 A(Tot)        -23.8592             -62.3442             -95.2036    A(iso)=  -60.4690
 Orientation: 
  X           0.2669884            0.7514548           -0.6033513
  Y           0.7406064           -0.5605859           -0.3704668
  Z          -0.6166193           -0.3479355           -0.7062022

Notes:  (1) The A matrix conforms to the "SAI" spin Hamiltonian convention.
        (2) Tensor is right-handed.

 -----------------------------------------------------------
 Nucleus   2H : A:ISTP=    1 I=  0.5 P=533.5514 MHz/au**3
                Q:ISTP=    2 I=  1.0 Q=  0.0029 barn     
 -----------------------------------------------------------
 Solving for nuclear perturbation:
Forming RHS of the CP-SCF equations         ... 
Calc. nucleus orbit integrals (SHARK)       ... done

------------------------------------------------------------------------------
                           ORCA CP-SCF CALCULATION
------------------------------------------------------------------------------

Input orbitals are from        ... /home/rwth0701/scratch/cs681498/orcajob__30556087-Hmx5/0.gbw
Input Perturbation             ... /home/rwth0701/scratch/cs681498/orcajob__30556087-Hmx5/0.pin.tmp
Wavefunction output            ... /home/rwth0701/scratch/cs681498/orcajob__30556087-Hmx5/0.pout.tmp
Perturbation mode              ... Imaginary perturbation
Solver                         ... POPLE
Max. number of iterations      ... 64
Convergence tolerance          ... 1.000e-03
Integral handling              ... Direct
DFT GridXC                     ... 1
COSX GridX                     ... 1
COSX IntAccX                   ... 3.067
COSX Algorithm                 ... Auto
Number of perturbations        ... 3
Number of operators            ... 2
Orbital ranges used for CP-SCF:
 Operator 0:  Orbitals   0...  4  to   5... 72
 Operator 1:  Orbitals   0...  3  to   4... 72
Variables per perturbation     ... 616
DFT calculation                         ... on
XC functional terms                     ... off
Hybrid DFT                              ... on
   Exchange mixing (SCF)                ...  0.200
   Exchange mixing (CP-SCF)             ...  0.200
   GGA exch. scaling(SCF)               ...  0.720
   GGA exch. scaling (CP-SCF)           ...  0.720
   GGA corr. scaling (SCF)              ...  0.810
   GGA corr. scaling (CP-SCF)           ...  0.810

CP-SCF GRID
-----------

General Integration Accuracy     IntAcc      ... 3.467
Radial Grid Type                 RadialGrid  ... OptM3 with GC (2021)
Angular Grid (max. ang.)         AngularGrid ... 1 (Lebedev-50)
Angular grid pruning method      GridPruning ... 4 (adaptive)
Weight generation scheme         WeightScheme... Becke
Basis function cutoff            BFCut       ... 1.0000e-10
Integration weight cutoff        WCut        ... 1.0000e-14
Angular grids for H and He will be reduced by one unit
Partially contracted basis set               ... off
Rotationally invariant grid construction     ... off

Total number of grid points                  ...     2345
Total number of batches                      ...       38
Average number of points per batch           ...       61
Average number of grid points per atom       ...      586

CP-SCF GRIDX
------------

General Integration Accuracy     IntAcc      ... 3.067
Radial Grid Type                 RadialGrid  ... OptM3 with GC (2021)
Angular Grid (max. ang.)         AngularGrid ... 1 (Lebedev-50)
Angular grid pruning method      GridPruning ... 4 (adaptive)
Weight generation scheme         WeightScheme... Becke
Basis function cutoff            BFCut       ... 1.0000e-10
Integration weight cutoff        WCut        ... 1.0000e-14
Angular grids for H and He will be reduced by one unit
Partially contracted basis set               ... on
Rotationally invariant grid construction     ... off

Total number of grid points                  ...     1077
Total number of batches                      ...       20
Average number of points per batch           ...       53
Average number of grid points per atom       ...      269

Memory available               ... 967.8 MB
Memory needed per perturbation ...   0.4 MB
Perturbations treated per batch... 3
Number of batches              ... 1
     CP-SCF ITERATION   0:   5.8030e-02 (   0.1 sec   0/  3 done)
     CP-SCF ITERATION   1:   2.4251e-03 (   0.1 sec   0/  3 done)
     CP-SCF ITERATION   2:   1.9358e-04 (   0.1 sec   3/  3 done)
                    *** THE CP-SCF HAS CONVERGED ***

Forming final perturbed densities           ... done
Transforming perturbed density to AO basis  ... done

 Raw HFC matrix (all values in MHz): 
 -----------------------------------
               -49.4369              17.6064               3.2857
                17.6069             -46.6513              28.1886
                 3.2856              28.1879             -79.2248

 A(FC)         -58.4512             -58.4512             -58.4512
 A(SD)          38.0441              -0.1394             -37.9047
 A(ORB+DIA)      0.0114              -0.0004               0.0296    A(PC) =   0.0135
 A(ORB)          0.0068               0.0007               0.0282    A(PC) =   0.0119
 A(DIA)          0.0047              -0.0011               0.0013    A(PC) =   0.0016
             ----------           ----------           ----------
 A(Tot)        -20.3957             -58.5910             -96.3264    A(iso)=  -58.4377
 Orientation: 
  X           0.5085297           -0.8498369            0.1384728
  Y           0.7650937            0.3722038           -0.5254483
  Z           0.3950053            0.3731508            0.8394816

Notes:  (1) The A matrix conforms to the "SAI" spin Hamiltonian convention.
        (2) Tensor is right-handed.

 -----------------------------------------------------------
 Nucleus   3H : A:ISTP=    1 I=  0.5 P=533.5514 MHz/au**3
                Q:ISTP=    2 I=  1.0 Q=  0.0029 barn     
 -----------------------------------------------------------
 Solving for nuclear perturbation:
Forming RHS of the CP-SCF equations         ... 
Calc. nucleus orbit integrals (SHARK)       ... done

------------------------------------------------------------------------------
                           ORCA CP-SCF CALCULATION
------------------------------------------------------------------------------

Input orbitals are from        ... /home/rwth0701/scratch/cs681498/orcajob__30556087-Hmx5/0.gbw
Input Perturbation             ... /home/rwth0701/scratch/cs681498/orcajob__30556087-Hmx5/0.pin.tmp
Wavefunction output            ... /home/rwth0701/scratch/cs681498/orcajob__30556087-Hmx5/0.pout.tmp
Perturbation mode              ... Imaginary perturbation
Solver                         ... POPLE
Max. number of iterations      ... 64
Convergence tolerance          ... 1.000e-03
Integral handling              ... Direct
DFT GridXC                     ... 1
COSX GridX                     ... 1
COSX IntAccX                   ... 3.067
COSX Algorithm                 ... Auto
Number of perturbations        ... 3
Number of operators            ... 2
Orbital ranges used for CP-SCF:
 Operator 0:  Orbitals   0...  4  to   5... 72
 Operator 1:  Orbitals   0...  3  to   4... 72
Variables per perturbation     ... 616
DFT calculation                         ... on
XC functional terms                     ... off
Hybrid DFT                              ... on
   Exchange mixing (SCF)                ...  0.200
   Exchange mixing (CP-SCF)             ...  0.200
   GGA exch. scaling(SCF)               ...  0.720
   GGA exch. scaling (CP-SCF)           ...  0.720
   GGA corr. scaling (SCF)              ...  0.810
   GGA corr. scaling (CP-SCF)           ...  0.810

CP-SCF GRID
-----------

General Integration Accuracy     IntAcc      ... 3.467
Radial Grid Type                 RadialGrid  ... OptM3 with GC (2021)
Angular Grid (max. ang.)         AngularGrid ... 1 (Lebedev-50)
Angular grid pruning method      GridPruning ... 4 (adaptive)
Weight generation scheme         WeightScheme... Becke
Basis function cutoff            BFCut       ... 1.0000e-10
Integration weight cutoff        WCut        ... 1.0000e-14
Angular grids for H and He will be reduced by one unit
Partially contracted basis set               ... off
Rotationally invariant grid construction     ... off

Total number of grid points                  ...     2345
Total number of batches                      ...       38
Average number of points per batch           ...       61
Average number of grid points per atom       ...      586

CP-SCF GRIDX
------------

General Integration Accuracy     IntAcc      ... 3.067
Radial Grid Type                 RadialGrid  ... OptM3 with GC (2021)
Angular Grid (max. ang.)         AngularGrid ... 1 (Lebedev-50)
Angular grid pruning method      GridPruning ... 4 (adaptive)
Weight generation scheme         WeightScheme... Becke
Basis function cutoff            BFCut       ... 1.0000e-10
Integration weight cutoff        WCut        ... 1.0000e-14
Angular grids for H and He will be reduced by one unit
Partially contracted basis set               ... on
Rotationally invariant grid construction     ... off

Total number of grid points                  ...     1077
Total number of batches                      ...       20
Average number of points per batch           ...       53
Average number of grid points per atom       ...      269

Memory available               ... 967.7 MB
Memory needed per perturbation ...   0.4 MB
Perturbations treated per batch... 3
Number of batches              ... 1
     CP-SCF ITERATION   0:   6.3345e-02 (   0.1 sec   0/  3 done)
     CP-SCF ITERATION   1:   2.6243e-03 (   0.1 sec   0/  3 done)
     CP-SCF ITERATION   2:   1.8923e-04 (   0.1 sec   3/  3 done)
                    *** THE CP-SCF HAS CONVERGED ***

Forming final perturbed densities           ... done
Transforming perturbed density to AO basis  ... done

 Raw HFC matrix (all values in MHz): 
 -----------------------------------
               -55.6175             -19.6769              18.6589
               -19.6773             -87.3135              -1.0409
                18.6590              -1.0402             -30.8746

 A(FC)         -57.9488             -57.9488             -57.9488
 A(SD)          38.7646               0.8800             -39.6446
 A(ORB+DIA)      0.0108              -0.0004               0.0304    A(PC) =   0.0136
 A(ORB)          0.0059               0.0008               0.0290    A(PC) =   0.0119
 A(DIA)          0.0050              -0.0011               0.0014    A(PC) =   0.0018
             ----------           ----------           ----------
 A(Tot)        -19.1734             -57.0691             -97.5630    A(iso)=  -57.9352
 Orientation: 
  X           0.5177201            0.7190114            0.4636686
  Y          -0.1623340           -0.4495524            0.8783794
  Z           0.8400081           -0.5300238           -0.1160223

Notes:  (1) The A matrix conforms to the "SAI" spin Hamiltonian convention.
        (2) Tensor is right-handed.

 -----------------------------------------------------------
 Nucleus   0C : A:ISTP=   13 I=  0.5 P=134.1903 MHz/au**3
                Q:ISTP=   13 I=  0.5 Q=  0.0000 barn     
 -----------------------------------------------------------
 Solving for nuclear perturbation:
Forming RHS of the CP-SCF equations         ... 
Calc. nucleus orbit integrals (SHARK)       ... done

------------------------------------------------------------------------------
                           ORCA CP-SCF CALCULATION
------------------------------------------------------------------------------

Input orbitals are from        ... /home/rwth0701/scratch/cs681498/orcajob__30556087-Hmx5/0.gbw
Input Perturbation             ... /home/rwth0701/scratch/cs681498/orcajob__30556087-Hmx5/0.pin.tmp
Wavefunction output            ... /home/rwth0701/scratch/cs681498/orcajob__30556087-Hmx5/0.pout.tmp
Perturbation mode              ... Imaginary perturbation
Solver                         ... POPLE
Max. number of iterations      ... 64
Convergence tolerance          ... 1.000e-03
Integral handling              ... Direct
DFT GridXC                     ... 1
COSX GridX                     ... 1
COSX IntAccX                   ... 3.067
COSX Algorithm                 ... Auto
Number of perturbations        ... 3
Number of operators            ... 2
Orbital ranges used for CP-SCF:
 Operator 0:  Orbitals   0...  4  to   5... 72
 Operator 1:  Orbitals   0...  3  to   4... 72
Variables per perturbation     ... 616
DFT calculation                         ... on
XC functional terms                     ... off
Hybrid DFT                              ... on
   Exchange mixing (SCF)                ...  0.200
   Exchange mixing (CP-SCF)             ...  0.200
   GGA exch. scaling(SCF)               ...  0.720
   GGA exch. scaling (CP-SCF)           ...  0.720
   GGA corr. scaling (SCF)              ...  0.810
   GGA corr. scaling (CP-SCF)           ...  0.810

CP-SCF GRID
-----------

General Integration Accuracy     IntAcc      ... 3.467
Radial Grid Type                 RadialGrid  ... OptM3 with GC (2021)
Angular Grid (max. ang.)         AngularGrid ... 1 (Lebedev-50)
Angular grid pruning method      GridPruning ... 4 (adaptive)
Weight generation scheme         WeightScheme... Becke
Basis function cutoff            BFCut       ... 1.0000e-10
Integration weight cutoff        WCut        ... 1.0000e-14
Angular grids for H and He will be reduced by one unit
Partially contracted basis set               ... off
Rotationally invariant grid construction     ... off

Total number of grid points                  ...     2345
Total number of batches                      ...       38
Average number of points per batch           ...       61
Average number of grid points per atom       ...      586

CP-SCF GRIDX
------------

General Integration Accuracy     IntAcc      ... 3.067
Radial Grid Type                 RadialGrid  ... OptM3 with GC (2021)
Angular Grid (max. ang.)         AngularGrid ... 1 (Lebedev-50)
Angular grid pruning method      GridPruning ... 4 (adaptive)
Weight generation scheme         WeightScheme... Becke
Basis function cutoff            BFCut       ... 1.0000e-10
Integration weight cutoff        WCut        ... 1.0000e-14
Angular grids for H and He will be reduced by one unit
Partially contracted basis set               ... on
Rotationally invariant grid construction     ... off

Total number of grid points                  ...     1077
Total number of batches                      ...       20
Average number of points per batch           ...       53
Average number of grid points per atom       ...      269

Memory available               ... 967.6 MB
Memory needed per perturbation ...   0.4 MB
Perturbations treated per batch... 3
Number of batches              ... 1
     CP-SCF ITERATION   0:   1.0529e+00 (   0.1 sec   0/  3 done)
     CP-SCF ITERATION   1:   4.0357e-02 (   0.1 sec   0/  3 done)
     CP-SCF ITERATION   2:   2.9429e-03 (   0.1 sec   0/  3 done)
     CP-SCF ITERATION   3:   1.4701e-04 (   0.1 sec   3/  3 done)
                    *** THE CP-SCF HAS CONVERGED ***

Forming final perturbed densities           ... done
Transforming perturbed density to AO basis  ... done

 Raw HFC matrix (all values in MHz): 
 -----------------------------------
               186.2334             -86.7926             -78.1330
               -86.7926              93.5772              46.6207
               -78.1330              46.6207              83.1403

 A(FC)         121.1013             121.1013             121.1013
 A(SD)         -79.8555             -79.3364             159.1919
 A(ORB+DIA)     -0.1749              -0.1650              -0.0130    A(PC) =  -0.1176
 A(ORB)         -0.1753              -0.1654              -0.0129    A(PC) =  -0.1179
 A(DIA)          0.0004               0.0004              -0.0001    A(PC) =   0.0002
             ----------           ----------           ----------
 A(Tot)         41.0709              41.5999             280.2802    A(iso)=  120.9836
 Orientation: 
  X          -0.5290745            0.3368796            0.7788403
  Y          -0.1299953            0.8748110           -0.4666980
  Z          -0.8385591           -0.3481636           -0.4190474

Notes:  (1) The A matrix conforms to the "SAI" spin Hamiltonian convention.
        (2) Tensor is right-handed.


--------------------------------------------------------------------------------
----------------------------------------------------------------------------
                           ORCA EULER ANGLE PROGRAM
----------------------------------------------------------------------------

Only g-tensor available        -->  using g-tensor as reference tensor

Reference tensor               ...  g

g-tensor ordering              ...  |g_min> --> |gx>
                                    |g_mid> --> |gy>
                                    |g_max> --> |gz>

A- and EFG-tensor ordering     ...  the axes |Ax>, |Qx>, |Ay>, etc. are assigned
                                    such that the Euler rotation is minimal. You
                                    can find the respective eigenvalues as Ax,
                                    EFGx, Ay, etc. in the tables below.
                                    The relation of |Ax>, |Ay>,  etc. to Amin, Amid, etc.
                                    (as printed in the ORCA EPR/NMR CALCULATION Output)
                                    is obtained in the detailed printout.

Euler rotation around          ...  z - y - z
   First rotation              -->  by alpha around z
   Second rotation             -->  by beta around y'
   Third rotation              -->  by gamma around z''
   Positive / Negative angle   -->  clockwise / counterclockwise rotation

Plot EFG-tensors                    (-)
Plot HFC-tensors                    (-)
Detailed Printout                   (-)

-------------------------------------------------------------------------
          Euler rotation of hyperfine tensor to g-tensor
-------------------------------------------------------------------------

-------------------------------------------------------------------
 Atom  |   Alpha    Beta    Gamma   |   Ax       Ay       Az 
       |          [degrees]         |           [MHz]         
-------------------------------------------------------------------
  1H       -4.0      6.5      3.8     -62.34   -95.20   -23.86
  2H      -98.3     29.3     90.7     -58.59   -20.40   -96.33
  3H       98.2     31.1    -91.0     -57.07   -19.17   -97.56
  0C       91.6     15.9    -91.8     280.28    41.07    41.60
-------------------------------------------------------------------


Maximum memory used throughout the entire EPRNMR-calculation: 67.6 MB

Timings for individual modules:

Sum of individual times         ...       18.692 sec (=   0.312 min)
GTO integral calculation        ...        3.464 sec (=   0.058 min)  18.5 %
Spin-Orbit-Coupling Matrices    ...        2.422 sec (=   0.040 min)  13.0 %
SCF iterations                  ...        6.177 sec (=   0.103 min)  33.0 %
EPR/NMR calculation             ...        6.629 sec (=   0.110 min)  35.5 %
                             ****ORCA TERMINATED NORMALLY****
TOTAL RUN TIME: 0 days 0 hours 0 minutes 21 seconds 729 msec
