Job execution start: Mon Oct 24 20:42:51 CEST 2022
Shared library path: /home/cs681498/orca:/opt/MPI/openmpi-4.1.1/linux/gcc_4.8.5/lib:/opt/MPI/openmpi-4.1.1/linux/gcc_4.8.5/lib/lib32
Slurm Job ID is: 30556438
Slurm Job name is: 13303
nrm106

                                 *****************
                                 * O   R   C   A *
                                 *****************

                                            #,                                       
                                            ###                                      
                                            ####                                     
                                            #####                                    
                                            ######                                   
                                           ########,                                 
                                     ,,################,,,,,                         
                               ,,#################################,,                 
                          ,,##########################################,,             
                       ,#########################################, ''#####,          
                    ,#############################################,,   '####,        
                  ,##################################################,,,,####,       
                ,###########''''           ''''###############################       
              ,#####''   ,,,,##########,,,,          '''####'''          '####       
            ,##' ,,,,###########################,,,                        '##       
           ' ,,###''''                  '''############,,,                           
         ,,##''                                '''############,,,,        ,,,,,,###''
      ,#''                                            '''#######################'''  
     '                                                          ''''####''''         
             ,#######,   #######,   ,#######,      ##                                
            ,#'     '#,  ##    ##  ,#'     '#,    #''#        ######   ,####,        
            ##       ##  ##   ,#'  ##            #'  '#       #        #'  '#        
            ##       ##  #######   ##           ,######,      #####,   #    #        
            '#,     ,#'  ##    ##  '#,     ,#' ,#      #,         ##   #,  ,#        
             '#######'   ##     ##  '#######'  #'      '#     #####' # '####'        



                  #######################################################
                  #                        -***-                        #
                  #          Department of theory and spectroscopy      #
                  #    Directorship and core code : Frank Neese         #
                  #        Max Planck Institute fuer Kohlenforschung    #
                  #                Kaiser Wilhelm Platz 1               #
                  #                 D-45470 Muelheim/Ruhr               #
                  #                      Germany                        #
                  #                                                     #
                  #                  All rights reserved                #
                  #                        -***-                        #
                  #######################################################


                         Program Version 5.0.3 -  RELEASE  -


 With contributions from (in alphabetic order):
   Daniel Aravena         : Magnetic Suceptibility
   Michael Atanasov       : Ab Initio Ligand Field Theory (pilot matlab implementation)
   Alexander A. Auer      : GIAO ZORA, VPT2 properties, NMR spectrum
   Ute Becker             : Parallelization
   Giovanni Bistoni       : ED, misc. LED, open-shell LED, HFLD
   Martin Brehm           : Molecular dynamics
   Dmytro Bykov           : SCF Hessian
   Vijay G. Chilkuri      : MRCI spin determinant printing, contributions to CSF-ICE
   Dipayan Datta          : RHF DLPNO-CCSD density
   Achintya Kumar Dutta   : EOM-CC, STEOM-CC
   Dmitry Ganyushin       : Spin-Orbit,Spin-Spin,Magnetic field MRCI
   Miquel Garcia          : C-PCM and meta-GGA Hessian, CC/C-PCM, Gaussian charge scheme
   Yang Guo               : DLPNO-NEVPT2, F12-NEVPT2, CIM, IAO-localization
   Andreas Hansen         : Spin unrestricted coupled pair/coupled cluster methods
   Benjamin Helmich-Paris : MC-RPA, TRAH-SCF, COSX integrals
   Lee Huntington         : MR-EOM, pCC
   Robert Izsak           : Overlap fitted RIJCOSX, COSX-SCS-MP3, EOM
   Marcus Kettner         : VPT2
   Christian Kollmar      : KDIIS, OOCD, Brueckner-CCSD(T), CCSD density, CASPT2, CASPT2-K
   Simone Kossmann        : Meta GGA functionals, TD-DFT gradient, OOMP2, MP2 Hessian
   Martin Krupicka        : Initial AUTO-CI
   Lucas Lang             : DCDCAS
   Marvin Lechner         : AUTO-CI (C++ implementation), FIC-MRCC
   Dagmar Lenk            : GEPOL surface, SMD
   Dimitrios Liakos       : Extrapolation schemes; Compound Job, initial MDCI parallelization
   Dimitrios Manganas     : Further ROCIS development; embedding schemes
   Dimitrios Pantazis     : SARC Basis sets
   Anastasios Papadopoulos: AUTO-CI, single reference methods and gradients
   Taras Petrenko         : DFT Hessian,TD-DFT gradient, ASA, ECA, R-Raman, ABS, FL, XAS/XES, NRVS
   Peter Pinski           : DLPNO-MP2, DLPNO-MP2 Gradient
   Christoph Reimann      : Effective Core Potentials
   Marius Retegan         : Local ZFS, SOC
   Christoph Riplinger    : Optimizer, TS searches, QM/MM, DLPNO-CCSD(T), (RO)-DLPNO pert. Triples
   Tobias Risthaus        : Range-separated hybrids, TD-DFT gradient, RPA, STAB
   Michael Roemelt        : Original ROCIS implementation
   Masaaki Saitow         : Open-shell DLPNO-CCSD energy and density
   Barbara Sandhoefer     : DKH picture change effects
   Avijit Sen             : IP-ROCIS
   Kantharuban Sivalingam : CASSCF convergence, NEVPT2, FIC-MRCI
   Bernardo de Souza      : ESD, SOC TD-DFT
   Georgi Stoychev        : AutoAux, RI-MP2 NMR, DLPNO-MP2 response
   Willem Van den Heuvel  : Paramagnetic NMR
   Boris Wezisla          : Elementary symmetry handling
   Frank Wennmohs         : Technical directorship


 We gratefully acknowledge several colleagues who have allowed us to
 interface, adapt or use parts of their codes:
   Stefan Grimme, W. Hujo, H. Kruse, P. Pracht,  : VdW corrections, initial TS optimization,
                  C. Bannwarth, S. Ehlert          DFT functionals, gCP, sTDA/sTD-DF
   Ed Valeev, F. Pavosevic, A. Kumar             : LibInt (2-el integral package), F12 methods
   Garnet Chan, S. Sharma, J. Yang, R. Olivares  : DMRG
   Ulf Ekstrom                                   : XCFun DFT Library
   Mihaly Kallay                                 : mrcc  (arbitrary order and MRCC methods)
   Jiri Pittner, Ondrej Demel                    : Mk-CCSD
   Frank Weinhold                                : gennbo (NPA and NBO analysis)
   Christopher J. Cramer and Donald G. Truhlar   : smd solvation model
   Lars Goerigk                                  : TD-DFT with DH, B97 family of functionals
   V. Asgeirsson, H. Jonsson                     : NEB implementation
   FAccTs GmbH                                   : IRC, NEB, NEB-TS, DLPNO-Multilevel, CI-OPT
                                                   MM, QMMM, 2- and 3-layer-ONIOM, Crystal-QMMM,
                                                   LR-CPCM, SF, NACMEs, symmetry and pop. for TD-DFT,
                                                   nearIR, NL-DFT gradient (VV10), updates on ESD,
                                                   ML-optimized integration grids
   S Lehtola, MJT Oliveira, MAL Marques          : LibXC Library
   Liviu Ungur et al                             : ANISO software


 Your calculation uses the libint2 library for the computation of 2-el integrals
 For citations please refer to: http://libint.valeyev.net

 Your ORCA version has been built with support for libXC version: 5.1.0
 For citations please refer to: https://tddft.org/programs/libxc/

 This ORCA versions uses:
   CBLAS   interface :  Fast vector & matrix operations
   LAPACKE interface :  Fast linear algebra routines
   SCALAPACK package :  Parallel linear algebra routines
   Shared memory     :  Shared parallel matrices
   BLAS/LAPACK       :  OpenBLAS 0.3.15  USE64BITINT DYNAMIC_ARCH NO_AFFINITY SkylakeX SINGLE_THREADED
        Core in use  :  SkylakeX
   Copyright (c) 2011-2014, The OpenBLAS Project


================================================================================

----- Orbital basis set information -----
Your calculation utilizes the basis: EPR-III
   V. Barone, in Recent Advances in Density Functional Methods, Part 1 (ed. D. P. Chong), World Scientific, Singapore, 1995, p. 287.
   N. Rega, M. Cossi and V. Barone, J. Chem. Phys. 105, 11060 (1996).

----- AuxJ basis set information -----
Your calculation utilizes the AutoAux generation procedure.
  G. L. Stoychev, A. A. Auer, F. Neese, J. Chem. Theory Comput. 13, 554 (2017)

----- AuxC basis set information -----
Your calculation utilizes the AutoAux generation procedure.
  G. L. Stoychev, A. A. Auer, F. Neese, J. Chem. Theory Comput. 13, 554 (2017)

----- AuxJK basis set information -----
Your calculation utilizes the AutoAux generation procedure.
  G. L. Stoychev, A. A. Auer, F. Neese, J. Chem. Theory Comput. 13, 554 (2017)

================================================================================
                                        WARNINGS
                       Please study these warnings very carefully!
================================================================================


WARNING: your system is open-shell and RHF/RKS was chosen
  ===> : WILL SWITCH to UHF/UKS


INFO   : the flag for use of the SHARK integral package has been found!

================================================================================
                                       INPUT FILE
================================================================================
NAME = /home/rwth0701/scratch/cs681498/orcajob__30556438-7Oah/13303.inp
|  1> !B3LYP EPR-III Autoaux
|  2> !PAL4
|  3> 
|  4> * xyz 0 2
|  5>  C    -58.4737958174    -80.6453001373    -25.3038655393
|  6>  H    -58.2376181146    -79.5824379628    -25.2194647328
|  7>  H    -59.5420210077    -80.9011428675    -25.3121344226
|  8>  H    -57.5872756867    -81.3213845205    -25.3262159904
|  9> *
| 10> 
| 11> %EPRNMR
| 12>         GTENSOR   TRUE
| 13>         NUCLEI    = ALL H {AISO, ADIP, AORB}
| 14>         NUCLEI    = ALL C {AISO, ADIP, AORB}
| 15> END
| 16> 
| 17> 
| 18>                          ****END OF INPUT****
================================================================================

                       ****************************
                       * Single Point Calculation *
                       ****************************

---------------------------------
CARTESIAN COORDINATES (ANGSTROEM)
---------------------------------
  C    -58.473796  -80.645300  -25.303866
  H    -58.237618  -79.582438  -25.219465
  H    -59.542021  -80.901143  -25.312134
  H    -57.587276  -81.321385  -25.326216

----------------------------
CARTESIAN COORDINATES (A.U.)
----------------------------
  NO LB      ZA    FRAG     MASS         X           Y           Z
   0 C     6.0000    0    12.011  -110.499460  -152.397531  -47.817376
   1 H     1.0000    0     1.008  -110.053149  -150.389013  -47.657882
   2 H     1.0000    0     1.008  -112.518113  -152.881004  -47.833002
   3 H     1.0000    0     1.008  -108.824180  -153.675146  -47.859612

--------------------------------
INTERNAL COORDINATES (ANGSTROEM)
--------------------------------
 C      0   0   0     0.000000000000     0.00000000     0.00000000
 H      1   0   0     1.092052840031     0.00000000     0.00000000
 H      1   2   0     1.098466628632   115.94961127     0.00000000
 H      1   2   3     1.115126709396   114.81531161   182.46527063

---------------------------
INTERNAL COORDINATES (A.U.)
---------------------------
 C      0   0   0     0.000000000000     0.00000000     0.00000000
 H      1   0   0     2.063680791430     0.00000000     0.00000000
 H      1   2   0     2.075801095367   115.94961127     0.00000000
 H      1   2   3     2.107284085379   114.81531161   182.46527063

---------------------
BASIS SET INFORMATION
---------------------
There are 2 groups of distinct atoms

 Group   1 Type C   : 12s8p2d1f contracted to 8s5p2d1f pattern {51111111/41111/11/1}
 Group   2 Type H   : 7s2p contracted to 5s2p pattern {31111/11}

Atom   0C    basis set group =>   1
Atom   1H    basis set group =>   2
Atom   2H    basis set group =>   2
Atom   3H    basis set group =>   2
---------------------------------
AUXILIARY/J BASIS SET INFORMATION
---------------------------------
There are 2 groups of distinct atoms

 Group   1 Type C   : 20s17p16d8f3g contracted to 20s17p16d8f3g pattern {11111111111111111111/11111111111111111/1111111111111111/11111111/111}
 Group   2 Type H   : 17s7p3d contracted to 17s7p3d pattern {11111111111111111/1111111/111}

Atom   0C    basis set group =>   1
Atom   1H    basis set group =>   2
Atom   2H    basis set group =>   2
Atom   3H    basis set group =>   2
---------------------------------
AUXILIARY/C BASIS SET INFORMATION
---------------------------------
There are 2 groups of distinct atoms

 Group   1 Type C   : 20s17p16d8f3g contracted to 20s17p16d8f3g pattern {11111111111111111111/11111111111111111/1111111111111111/11111111/111}
 Group   2 Type H   : 17s7p3d contracted to 17s7p3d pattern {11111111111111111/1111111/111}

Atom   0C    basis set group =>   1
Atom   1H    basis set group =>   2
Atom   2H    basis set group =>   2
Atom   3H    basis set group =>   2
----------------------------------
AUXILIARY/JK BASIS SET INFORMATION
----------------------------------
There are 2 groups of distinct atoms

 Group   1 Type C   : 20s17p16d8f3g contracted to 20s17p16d8f3g pattern {11111111111111111111/11111111111111111/1111111111111111/11111111/111}
 Group   2 Type H   : 17s7p3d contracted to 17s7p3d pattern {11111111111111111/1111111/111}

Atom   0C    basis set group =>   1
Atom   1H    basis set group =>   2
Atom   2H    basis set group =>   2
Atom   3H    basis set group =>   2


           ************************************************************
           *        Program running with 4 parallel MPI-processes     *
           *              working on a common directory               *
           ************************************************************
------------------------------------------------------------------------------
                           ORCA GTO INTEGRAL CALCULATION
                           -- RI-GTO INTEGRALS CHOSEN --
------------------------------------------------------------------------------
------------------------------------------------------------------------------
                   ___                                                        
                  /   \      - P O W E R E D   B Y -                         
                 /     \                                                     
                 |  |  |   _    _      __       _____    __    __             
                 |  |  |  | |  | |    /  \     |  _  \  |  |  /  |          
                  \  \/   | |  | |   /    \    | | | |  |  | /  /          
                 / \  \   | |__| |  /  /\  \   | |_| |  |  |/  /          
                |  |  |   |  __  | /  /__\  \  |    /   |      \           
                |  |  |   | |  | | |   __   |  |    \   |  |\   \          
                \     /   | |  | | |  |  |  |  | |\  \  |  | \   \       
                 \___/    |_|  |_| |__|  |__|  |_| \__\ |__|  \__/        
                                                                              
                      - O R C A' S   B I G   F R I E N D -                    
                                      &                                       
                       - I N T E G R A L  F E E D E R -                       
                                                                              
 v1 FN, 2020, v2 2021                                                         
------------------------------------------------------------------------------


Reading SHARK input file /home/rwth0701/scratch/cs681498/orcajob__30556438-7Oah/13303.SHARKINP.tmp ... ok
----------------------
SHARK INTEGRAL PACKAGE
----------------------

Number of atoms                             ...      4
Number of basis functions                   ...     73
Number of shells                            ...     37
Maximum angular momentum                    ...      3
Integral batch strategy                     ... SHARK/LIBINT Hybrid
RI-J (if used) integral strategy            ... SPLIT-RIJ (Revised 2003 algorithm where possible)
Printlevel                                  ...      1
Contraction scheme used                     ... SEGMENTED contraction
Coulomb Range Separation                    ... NOT USED
Exchange Range Separation                   ... NOT USED
Finite Nucleus Model                        ... NOT USED
Auxiliary Coulomb fitting basis             ... AVAILABLE
   # of basis functions in Aux-J            ...    393
   # of shells in Aux-J                     ...    145
   Maximum angular momentum in Aux-J        ...      4
Auxiliary J/K fitting basis                 ... AVAILABLE
   # of basis functions in Aux-JK           ...    393
   # of shells in Aux-JK                    ...    145
   Maximum angular momentum in Aux-JK       ...      4
Auxiliary Correlation fitting basis         ... AVAILABLE
   # of basis functions in Aux-C            ...    393
   # of shells in Aux-C                     ...    145
   Maximum angular momentum in Aux-C        ...      4
Auxiliary 'external' fitting basis          ... NOT available
Integral threshold                          ...     1.000000e-10
Primitive cut-off                           ...     1.000000e-11
Primitive pair pre-selection threshold      ...     1.000000e-11

Calculating pre-screening integrals         ... done (  0.0 sec) Dimension = 37
Organizing shell pair data                  ... done (  0.0 sec)
Shell pair information
Total number of shell pairs                 ...       703
Shell pairs after pre-screening             ...       688
Total number of primitive shell pairs       ...      1300
Primitive shell pairs kept                  ...      1183
          la=0 lb=0:    261 shell pairs
          la=1 lb=0:    253 shell pairs
          la=1 lb=1:     66 shell pairs
          la=2 lb=0:     46 shell pairs
          la=2 lb=1:     22 shell pairs
          la=2 lb=2:      3 shell pairs
          la=3 lb=0:     23 shell pairs
          la=3 lb=1:     11 shell pairs
          la=3 lb=2:      2 shell pairs
          la=3 lb=3:      1 shell pairs

Calculating one electron integrals          ... done (  0.0 sec)
Calculating RI/J V-Matrix + Cholesky decomp.... done (  0.1 sec)
Calculating RI/JK V-Matrix + Cholesky decomp... done (  0.1 sec)
Calculating RI/C V-Matrix + Cholesky decomp.... done (  0.1 sec)
Calculating Nuclear repulsion               ... done (  0.0 sec) ENN=      9.479301433431 Eh

SHARK setup successfully completed in   0.5 seconds

Maximum memory used throughout the entire GTOINT-calculation: 13.7 MB


           ************************************************************
           *        Program running with 4 parallel MPI-processes     *
           *              working on a common directory               *
           ************************************************************
-------------------------------------------------------------------------------
                                 ORCA SCF
-------------------------------------------------------------------------------

------------
SCF SETTINGS
------------
Hamiltonian:
 Density Functional     Method          .... DFT(GTOs)
 Exchange Functional    Exchange        .... B88
   X-Alpha parameter    XAlpha          ....  0.666667
   Becke's b parameter  XBeta           ....  0.004200
 Correlation Functional Correlation     .... LYP
 LDA part of GGA corr.  LDAOpt          .... VWN-5
 Gradients option       PostSCFGGA      .... off
 Hybrid DFT is turned on
   Fraction HF Exchange ScalHFX         ....  0.200000
   Scaling of DF-GGA-X  ScalDFX         ....  0.720000
   Scaling of DF-GGA-C  ScalDFC         ....  0.810000
   Scaling of DF-LDA-C  ScalLDAC        ....  1.000000
   Perturbative correction              ....  0.000000
   Density functional embedding theory  .... OFF
   NL short-range parameter             ....  4.800000
 RI-approximation to the Coulomb term is turned on
   Number of AuxJ basis functions       .... 393
   RIJ-COSX (HFX calculated with COS-X)).... on


General Settings:
 Integral files         IntName         .... /home/rwth0701/scratch/cs681498/orcajob__30556438-7Oah/13303
 Hartree-Fock type      HFTyp           .... UHF
 Total Charge           Charge          ....    0
 Multiplicity           Mult            ....    2
 Number of Electrons    NEL             ....    9
 Basis Dimension        Dim             ....   73
 Nuclear Repulsion      ENuc            ....      9.4793014334 Eh

Convergence Acceleration:
 DIIS                   CNVDIIS         .... on
   Start iteration      DIISMaxIt       ....    12
   Startup error        DIISStart       ....  0.200000
   # of expansion vecs  DIISMaxEq       ....     5
   Bias factor          DIISBfac        ....   1.050
   Max. coefficient     DIISMaxC        ....  10.000
 Trust-Rad. Augm. Hess. CNVTRAH         .... auto
   Auto Start mean grad. ratio tolernc. ....  1.125000
   Auto Start start iteration           ....    20
   Auto Start num. interpolation iter.  ....    10
   Max. Number of Micro iterations      ....    16
   Max. Number of Macro iterations      .... Maxiter - #DIIS iter
   Number of Davidson start vectors     ....     2
   Converg. threshold I  (grad. norm)   ....   5.000e-05
   Converg. threshold II (energy diff.) ....   1.000e-06
   Grad. Scal. Fac. for Micro threshold ....   0.100
   Minimum threshold for Micro iter.    ....   0.010
   NR start threshold (gradient norm)   ....   0.001
   Initial trust radius                 ....   0.400
   Minimum AH scaling param. (alpha)    ....   1.000
   Maximum AH scaling param. (alpha)    .... 1000.000
   Orbital update algorithm             .... Taylor
   White noise on init. David. guess    .... on
   Maximum white noise                  ....   0.010
   Quad. conv. algorithm                .... NR
 SOSCF                  CNVSOSCF        .... off
 Level Shifting         CNVShift        .... on
   Level shift para.    LevelShift      ....    0.2500
   Turn off err/grad.   ShiftErr        ....    0.0010
 Zerner damping         CNVZerner       .... off
 Static damping         CNVDamp         .... on
   Fraction old density DampFac         ....    0.7000
   Max. Damping (<1)    DampMax         ....    0.9800
   Min. Damping (>=0)   DampMin         ....    0.0000
   Turn off err/grad.   DampErr         ....    0.1000
 Fernandez-Rico         CNVRico         .... off

SCF Procedure:
 Maximum # iterations   MaxIter         ....   125
 SCF integral mode      SCFMode         .... Direct
   Integral package                     .... SHARK and LIBINT hybrid scheme
 Reset frequency        DirectResetFreq ....    20
 Integral Threshold     Thresh          ....  1.000e-10 Eh
 Primitive CutOff       TCut            ....  1.000e-11 Eh

Convergence Tolerance:
 Convergence Check Mode ConvCheckMode   .... Total+1el-Energy
 Convergence forced     ConvForced      .... 0
 Energy Change          TolE            ....  1.000e-06 Eh
 1-El. energy change                    ....  1.000e-03 Eh
 DIIS Error             TolErr          ....  1.000e-06


Diagonalization of the overlap matrix:
Smallest eigenvalue                        ... 1.686e-03
Time for diagonalization                   ...    0.001 sec
Threshold for overlap eigenvalues          ... 1.000e-08
Number of eigenvalues below threshold      ... 0
Time for construction of square roots      ...    0.013 sec
Total time needed                          ...    0.014 sec

Time for model grid setup =    0.065 sec

------------------------------
INITIAL GUESS: MODEL POTENTIAL
------------------------------
Loading Hartree-Fock densities                     ... done
Calculating cut-offs                               ... done
Initializing the effective Hamiltonian             ... done
Setting up the integral package (SHARK)            ... done
Starting the Coulomb interaction                   ... done (   0.0 sec)
Reading the grid                                   ... done
Mapping shells                                     ... done
Starting the XC term evaluation                    ... done (   0.0 sec)
  promolecular density results
     # of electrons  =      8.998798690
     EX              =     -5.960736595
     EC              =     -0.259593176
     EX+EC           =     -6.220329771
Transforming the Hamiltonian                       ... done (   0.0 sec)
Diagonalizing the Hamiltonian                      ... done (   0.0 sec)
Back transforming the eigenvectors                 ... done (   0.0 sec)
Now organizing SCF variables                       ... done
                      ------------------
                      INITIAL GUESS DONE (   0.1 sec)
                      ------------------
-------------------
DFT GRID GENERATION
-------------------

General Integration Accuracy     IntAcc      ... 4.388
Radial Grid Type                 RadialGrid  ... OptM3 with GC (2021)
Angular Grid (max. ang.)         AngularGrid ... 4 (Lebedev-302)
Angular grid pruning method      GridPruning ... 4 (adaptive)
Weight generation scheme         WeightScheme... Becke
Basis function cutoff            BFCut       ... 1.0000e-10
Integration weight cutoff        WCut        ... 1.0000e-14
Angular grids for H and He will be reduced by one unit
Partially contracted basis set               ... off
Rotationally invariant grid construction     ... off

Total number of grid points                  ...    17048
Total number of batches                      ...      268
Average number of points per batch           ...       63
Average number of grid points per atom       ...     4262
Time for grid setup =    0.151 sec

--------------------
COSX GRID GENERATION
--------------------

GRIDX 1
-------
General Integration Accuracy     IntAcc      ... 3.816
Radial Grid Type                 RadialGrid  ... OptM3 with GC (2021)
Angular Grid (max. ang.)         AngularGrid ... 1 (Lebedev-50)
Angular grid pruning method      GridPruning ... 4 (adaptive)
Weight generation scheme         WeightScheme... Becke
Basis function cutoff            BFCut       ... 1.0000e-10
Integration weight cutoff        WCut        ... 1.0000e-14
Angular grids for H and He will be reduced by one unit
Partially contracted basis set               ... on
Rotationally invariant grid construction     ... off

Total number of grid points                  ...     2147
Total number of batches                      ...       35
Average number of points per batch           ...       61
Average number of grid points per atom       ...      537
UseSFitting                                  ... on

GRIDX 2
-------
General Integration Accuracy     IntAcc      ... 4.020
Radial Grid Type                 RadialGrid  ... OptM3 with GC (2021)
Angular Grid (max. ang.)         AngularGrid ... 2 (Lebedev-110)
Angular grid pruning method      GridPruning ... 4 (adaptive)
Weight generation scheme         WeightScheme... Becke
Basis function cutoff            BFCut       ... 1.0000e-10
Integration weight cutoff        WCut        ... 1.0000e-14
Angular grids for H and He will be reduced by one unit
Partially contracted basis set               ... on
Rotationally invariant grid construction     ... off

Total number of grid points                  ...     5049
Total number of batches                      ...       80
Average number of points per batch           ...       63
Average number of grid points per atom       ...     1262
UseSFitting                                  ... on

GRIDX 3
-------
General Integration Accuracy     IntAcc      ... 4.338
Radial Grid Type                 RadialGrid  ... OptM3 with GC (2021)
Angular Grid (max. ang.)         AngularGrid ... 3 (Lebedev-194)
Angular grid pruning method      GridPruning ... 4 (adaptive)
Weight generation scheme         WeightScheme... Becke
Basis function cutoff            BFCut       ... 1.0000e-10
Integration weight cutoff        WCut        ... 1.0000e-14
Angular grids for H and He will be reduced by one unit
Partially contracted basis set               ... on
Rotationally invariant grid construction     ... off

Total number of grid points                  ...    11733
Total number of batches                      ...      185
Average number of points per batch           ...       63
Average number of grid points per atom       ...     2933
UseSFitting                                  ... on

Time for X-Grid setup             =    0.229 sec

--------------
SCF ITERATIONS
--------------
ITER       Energy         Delta-E        Max-DP      RMS-DP      [F,P]     Damp
               ***  Starting incremental Fock matrix formation  ***
  0    -39.7871211705   0.000000000000 0.01470375  0.00048478  0.0870779 0.7000
  1    -39.8044656301  -0.017344459519 0.00920507  0.00036261  0.0458370 0.7000
                               ***Turning on DIIS***
  2    -39.8121093300  -0.007643699976 0.01600583  0.00063258  0.0185896 0.0000
  3    -39.8225818281  -0.010472498095 0.00843837  0.00027395  0.0275161 0.0000
  4    -39.8258113491  -0.003229520977 0.00296764  0.00007677  0.0056577 0.0000
  5    -39.8259417946  -0.000130445522 0.00107059  0.00003278  0.0019054 0.0000
  6    -39.8259593677  -0.000017573062 0.00089856  0.00002567  0.0008150 0.0000
               *** Restarting incremental Fock matrix formation ***
                                   *** Resetting DIIS ***
  7    -39.8259662281  -0.000006860445 0.00009238  0.00000312  0.0000871 0.0000
                 **** Energy Check signals convergence ****

               *****************************************************
               *                     SUCCESS                       *
               *           SCF CONVERGED AFTER   8 CYCLES          *
               *****************************************************

Old exchange energy                            =     -1.236160716 Eh
New exchange energy                            =     -1.236161888 Eh
Exchange energy change after final integration =     -0.000001172 Eh
Total energy after final integration           =    -39.825967478 Eh
Final COS-X integration done in                =     0.178 sec

----------------
TOTAL SCF ENERGY
----------------

Total Energy       :          -39.82596748 Eh           -1083.71967 eV

Components:
Nuclear Repulsion  :            9.47930143 Eh             257.94491 eV
Electronic Energy  :          -49.30526891 Eh           -1341.66458 eV
One Electron Energy:          -71.29124201 Eh           -1939.93332 eV
Two Electron Energy:           21.98597310 Eh             598.26874 eV
Max COSX asymmetry :            0.00000006 Eh               0.00000 eV

Virial components:
Potential Energy   :          -79.35968530 Eh           -2159.48682 eV
Kinetic Energy     :           39.53371783 Eh            1075.76715 eV
Virial Ratio       :            2.00739242


DFT components:
N(Alpha)           :        5.000000507127 electrons
N(Beta)            :        4.000000971948 electrons
N(Total)           :        9.000001479075 electrons
E(X)               :       -4.894405652835 Eh       
E(C)               :       -0.308600611504 Eh       
E(XC)              :       -5.203006264339 Eh       
DFET-embed. en.    :        0.000000000000 Eh       

---------------
SCF CONVERGENCE
---------------

  Last Energy change         ...   -7.8344e-08  Tolerance :   1.0000e-06
  Last MAX-Density change    ...    0.0000e+00  Tolerance :   1.0000e-05
  Last RMS-Density change    ...    0.0000e+00  Tolerance :   1.0000e-06
  Last DIIS Error            ...    6.1701e-05  Tolerance :   1.0000e-06

             **** THE GBW FILE WAS UPDATED (/home/rwth0701/scratch/cs681498/orcajob__30556438-7Oah/13303.gbw) ****
             **** DENSITY /home/rwth0701/scratch/cs681498/orcajob__30556438-7Oah/13303.scfp WAS UPDATED ****
             **** ENERGY FILE WAS UPDATED (/home/rwth0701/scratch/cs681498/orcajob__30556438-7Oah/13303.en.tmp) ****
----------------------
UHF SPIN CONTAMINATION
----------------------

Warning: in a DFT calculation there is little theoretical justification to 
         calculate <S**2> as in Hartree-Fock theory. We will do it anyways
         but you should keep in mind that the values have only limited relevance

Expectation value of <S**2>     :     0.753869
Ideal value S*(S+1) for S=0.5   :     0.750000
Deviation                       :     0.003869

             **** THE GBW FILE WAS UPDATED (/home/rwth0701/scratch/cs681498/orcajob__30556438-7Oah/13303.gbw) ****
             **** DENSITY /home/rwth0701/scratch/cs681498/orcajob__30556438-7Oah/13303.scfp WAS UPDATED ****
----------------
ORBITAL ENERGIES
----------------
                 SPIN UP ORBITALS
  NO   OCC          E(Eh)            E(eV) 
   0   1.0000     -10.190688      -277.3027 
   1   1.0000      -0.682040       -18.5592 
   2   1.0000      -0.428817       -11.6687 
   3   1.0000      -0.406713       -11.0672 
   4   1.0000      -0.234820        -6.3898 
   5   0.0000       0.000143         0.0039 
   6   0.0000       0.035193         0.9576 
   7   0.0000       0.038109         1.0370 
   8   0.0000       0.047383         1.2894 
   9   0.0000       0.081295         2.2122 
  10   0.0000       0.093035         2.5316 
  11   0.0000       0.094512         2.5718 
  12   0.0000       0.218559         5.9473 
  13   0.0000       0.226793         6.1713 
  14   0.0000       0.246498         6.7076 
  15   0.0000       0.275836         7.5059 
  16   0.0000       0.293958         7.9990 
  17   0.0000       0.310820         8.4579 
  18   0.0000       0.334291         9.0965 
  19   0.0000       0.546960        14.8835 
  20   0.0000       0.564533        15.3617 
  21   0.0000       0.734598        19.9894 
  22   0.0000       0.745963        20.2987 
  23   0.0000       0.771748        21.0003 
  24   0.0000       0.817041        22.2328 
  25   0.0000       0.883670        24.0459 
  26   0.0000       0.888266        24.1709 
  27   0.0000       0.937172        25.5018 
  28   0.0000       0.949270        25.8310 
  29   0.0000       1.050320        28.5807 
  30   0.0000       1.072169        29.1752 
  31   0.0000       1.111992        30.2588 
  32   0.0000       1.162226        31.6258 
  33   0.0000       1.163822        31.6692 
  34   0.0000       1.440973        39.2109 
  35   0.0000       1.461790        39.7773 
  36   0.0000       1.493022        40.6272 
  37   0.0000       1.708437        46.4889 
  38   0.0000       1.714419        46.6517 
  39   0.0000       1.746183        47.5161 
  40   0.0000       2.723833        74.1193 
  41   0.0000       2.732239        74.3480 
  42   0.0000       2.883895        78.4748 
  43   0.0000       2.891084        78.6704 
  44   0.0000       2.934474        79.8511 
  45   0.0000       2.967534        80.7507 
  46   0.0000       2.976274        80.9885 
  47   0.0000       3.148323        85.6702 
  48   0.0000       3.165056        86.1255 
  49   0.0000       3.252647        88.5090 
  50   0.0000       3.255697        88.5920 
  51   0.0000       3.665072        99.7317 
  52   0.0000       3.717058       101.1463 
  53   0.0000       3.791303       103.1666 
  54   0.0000       3.908290       106.3500 
  55   0.0000       3.926469       106.8446 
  56   0.0000       4.032898       109.7407 
  57   0.0000       4.089042       111.2685 
  58   0.0000       4.113724       111.9401 
  59   0.0000       4.116492       112.0154 
  60   0.0000       4.560014       124.0843 
  61   0.0000       5.017174       136.5242 
  62   0.0000       5.335229       145.1790 
  63   0.0000       5.355026       145.7177 
  64   0.0000       5.505000       149.7987 
  65   0.0000       6.059360       164.8836 
  66   0.0000       6.084044       165.5552 
  67   0.0000       7.671539       208.7532 
  68   0.0000      29.034241       790.0619 
  69   0.0000      37.088534      1009.2303 
  70   0.0000      37.192472      1012.0586 
  71   0.0000      37.207883      1012.4780 
  72   0.0000     133.483483      3632.2702 

                 SPIN DOWN ORBITALS
  NO   OCC          E(Eh)            E(eV) 
   0   1.0000     -10.176129      -276.9065 
   1   1.0000      -0.642397       -17.4805 
   2   1.0000      -0.419849       -11.4247 
   3   1.0000      -0.397149       -10.8070 
   4   0.0000      -0.077125        -2.0987 
   5   0.0000       0.003508         0.0955 
   6   0.0000       0.034889         0.9494 
   7   0.0000       0.037730         1.0267 
   8   0.0000       0.060704         1.6518 
   9   0.0000       0.084036         2.2867 
  10   0.0000       0.094661         2.5759 
  11   0.0000       0.097625         2.6565 
  12   0.0000       0.219890         5.9835 
  13   0.0000       0.228041         6.2053 
  14   0.0000       0.264747         7.2041 
  15   0.0000       0.300433         8.1752 
  16   0.0000       0.310414         8.4468 
  17   0.0000       0.315568         8.5871 
  18   0.0000       0.347935         9.4678 
  19   0.0000       0.572965        15.5912 
  20   0.0000       0.591574        16.0975 
  21   0.0000       0.736204        20.0331 
  22   0.0000       0.746928        20.3249 
  23   0.0000       0.798169        21.7193 
  24   0.0000       0.815772        22.1983 
  25   0.0000       0.886361        24.1191 
  26   0.0000       0.893628        24.3168 
  27   0.0000       0.954450        25.9719 
  28   0.0000       0.967352        26.3230 
  29   0.0000       1.079288        29.3689 
  30   0.0000       1.125382        30.6232 
  31   0.0000       1.134543        30.8725 
  32   0.0000       1.175270        31.9807 
  33   0.0000       1.175803        31.9952 
  34   0.0000       1.449255        39.4362 
  35   0.0000       1.484872        40.4054 
  36   0.0000       1.498206        40.7682 
  37   0.0000       1.714575        46.6560 
  38   0.0000       1.723208        46.8909 
  39   0.0000       1.752814        47.6965 
  40   0.0000       2.764552        75.2273 
  41   0.0000       2.772937        75.4554 
  42   0.0000       2.890559        78.6561 
  43   0.0000       2.922571        79.5272 
  44   0.0000       2.973223        80.9055 
  45   0.0000       2.983731        81.1915 
  46   0.0000       3.029509        82.4371 
  47   0.0000       3.200187        87.0815 
  48   0.0000       3.217468        87.5517 
  49   0.0000       3.310910        90.0944 
  50   0.0000       3.313864        90.1748 
  51   0.0000       3.664840        99.7254 
  52   0.0000       3.776792       102.7717 
  53   0.0000       3.790243       103.1377 
  54   0.0000       3.910058       106.3981 
  55   0.0000       3.939243       107.1922 
  56   0.0000       4.047967       110.1508 
  57   0.0000       4.091582       111.3376 
  58   0.0000       4.116742       112.0223 
  59   0.0000       4.142297       112.7176 
  60   0.0000       4.559925       124.0819 
  61   0.0000       5.039636       137.1355 
  62   0.0000       5.334067       145.1473 
  63   0.0000       5.353692       145.6814 
  64   0.0000       5.500842       149.6855 
  65   0.0000       6.061573       164.9438 
  66   0.0000       6.086289       165.6163 
  67   0.0000       7.706433       209.7027 
  68   0.0000      29.061090       790.7925 
  69   0.0000      37.076367      1008.8992 
  70   0.0000      37.179860      1011.7154 
  71   0.0000      37.195905      1012.1520 
  72   0.0000     133.491418      3632.4861 

                    ********************************
                    * MULLIKEN POPULATION ANALYSIS *
                    ********************************

--------------------------------------------
MULLIKEN ATOMIC CHARGES AND SPIN POPULATIONS
--------------------------------------------
   0 C :   -0.428880    1.107786
   1 H :    0.135553   -0.035721
   2 H :    0.147546   -0.035368
   3 H :    0.145781   -0.036697
Sum of atomic charges         :   -0.0000000
Sum of atomic spin populations:    1.0000000

-----------------------------------------------------
MULLIKEN REDUCED ORBITAL CHARGES AND SPIN POPULATIONS
-----------------------------------------------------
CHARGE
  0 C s       :     3.344669  s :     3.344669
      pz      :     0.969181  p :     3.057080
      px      :     1.040195
      py      :     1.047705
      dz2     :     0.005708  d :     0.024256
      dxz     :     0.000010
      dyz     :     0.000175
      dx2y2   :     0.010569
      dxy     :     0.007794
      f0      :     0.000023  f :     0.002875
      f+1     :     0.000754
      f-1     :     0.000606
      f+2     :     0.000016
      f-2     :     0.000006
      f+3     :     0.000537
      f-3     :     0.000932
  1 H s       :     0.838328  s :     0.838328
      pz      :     0.010163  p :     0.026119
      px      :     0.006436
      py      :     0.009520
  2 H s       :     0.825529  s :     0.825529
      pz      :     0.010597  p :     0.026926
      px      :     0.009722
      py      :     0.006607
  3 H s       :     0.828085  s :     0.828085
      pz      :     0.010241  p :     0.026134
      px      :     0.008624
      py      :     0.007269

SPIN
  0 C s       :     0.067947  s :     0.067947
      pz      :     0.964880  p :     1.044141
      px      :     0.037861
      py      :     0.041400
      dz2     :    -0.004702  d :    -0.002970
      dxz     :     0.000003
      dyz     :    -0.000046
      dx2y2   :     0.001072
      dxy     :     0.000703
      f0      :    -0.000010  f :    -0.001331
      f+1     :    -0.000665
      f-1     :    -0.000587
      f+2     :    -0.000006
      f-2     :    -0.000004
      f+3     :    -0.000020
      f-3     :    -0.000039
  1 H s       :    -0.045237  s :    -0.045237
      pz      :     0.010100  p :     0.009516
      px      :    -0.000452
      py      :    -0.000132
  2 H s       :    -0.045654  s :    -0.045654
      pz      :     0.010567  p :     0.010286
      px      :    -0.000059
      py      :    -0.000222
  3 H s       :    -0.046598  s :    -0.046598
      pz      :     0.010214  p :     0.009901
      px      :    -0.000086
      py      :    -0.000228


                     *******************************
                     * LOEWDIN POPULATION ANALYSIS *
                     *******************************

-------------------------------------------
LOEWDIN ATOMIC CHARGES AND SPIN POPULATIONS
-------------------------------------------
   0 C :   -0.169947    0.917188
   1 H :    0.050096    0.029542
   2 H :    0.056184    0.027980
   3 H :    0.063667    0.025290

----------------------------------------------------
LOEWDIN REDUCED ORBITAL CHARGES AND SPIN POPULATIONS
----------------------------------------------------
CHARGE
  0 C s       :     2.898607  s :     2.898607
      pz      :     0.879892  p :     3.173660
      px      :     1.142525
      py      :     1.151243
      dz2     :     0.006910  d :     0.090253
      dxz     :     0.000067
      dyz     :     0.000433
      dx2y2   :     0.046022
      dxy     :     0.036822
      f0      :     0.000215  f :     0.007427
      f+1     :     0.002174
      f-1     :     0.001759
      f+2     :     0.000054
      f-2     :     0.000014
      f+3     :     0.001228
      f-3     :     0.001984
  1 H s       :     0.806241  s :     0.806241
      pz      :     0.041714  p :     0.143663
      px      :     0.032317
      py      :     0.069632
  2 H s       :     0.802778  s :     0.802778
      pz      :     0.040662  p :     0.141038
      px      :     0.067833
      py      :     0.032544
  3 H s       :     0.800333  s :     0.800333
      pz      :     0.038787  p :     0.136000
      px      :     0.052927
      py      :     0.044286

SPIN
  0 C s       :     0.020523  s :     0.020523
      pz      :     0.875090  p :     0.905621
      px      :     0.012721
      py      :     0.017810
      dz2     :    -0.004026  d :    -0.007614
      dxz     :    -0.000001
      dyz     :    -0.000062
      dx2y2   :    -0.001982
      dxy     :    -0.001543
      f0      :     0.000153  f :    -0.001342
      f+1     :    -0.000622
      f-1     :    -0.000543
      f+2     :    -0.000010
      f-2     :    -0.000004
      f+3     :    -0.000116
      f-3     :    -0.000201
  1 H s       :    -0.016918  s :    -0.016918
      pz      :     0.041331  p :     0.046460
      px      :     0.000669
      py      :     0.004460
  2 H s       :    -0.018104  s :    -0.018104
      pz      :     0.040537  p :     0.046084
      px      :     0.004705
      py      :     0.000842
  3 H s       :    -0.018800  s :    -0.018800
      pz      :     0.038662  p :     0.044090
      px      :     0.003425
      py      :     0.002003


                      *****************************
                      * MAYER POPULATION ANALYSIS *
                      *****************************

  NA   - Mulliken gross atomic population
  ZA   - Total nuclear charge
  QA   - Mulliken gross atomic charge
  VA   - Mayer's total valence
  BVA  - Mayer's bonded valence
  FA   - Mayer's free valence

  ATOM       NA         ZA         QA         VA         BVA        FA
  0 C      6.4289     6.0000    -0.4289     3.8704     2.9233     0.9472
  1 H      0.8644     1.0000     0.1356     0.9790     0.9770     0.0020
  2 H      0.8525     1.0000     0.1475     0.9839     0.9818     0.0021
  3 H      0.8542     1.0000     0.1458     0.9835     0.9814     0.0022

  Mayer bond orders larger than 0.100000
B(  0-C ,  1-H ) :   0.9760 B(  0-C ,  2-H ) :   0.9737 B(  0-C ,  3-H ) :   0.9736 


-------
TIMINGS
-------

Total SCF time: 0 days 0 hours 0 min 5 sec 

Total time                  ....       5.003 sec
Sum of individual times     ....       4.295 sec  ( 85.8%)

Fock matrix formation       ....       3.621 sec  ( 72.4%)
  Split-RI-J                ....       0.356 sec  (  9.8% of F)
  Chain of spheres X        ....       0.883 sec  ( 24.4% of F)
  XC integration            ....       1.522 sec  ( 42.0% of F)
    Basis function eval.    ....       0.114 sec  (  7.5% of XC)
    Density eval.           ....       0.112 sec  (  7.4% of XC)
    XC-Functional eval.     ....       0.104 sec  (  6.8% of XC)
    XC-Potential eval.      ....       0.163 sec  ( 10.7% of XC)
Diagonalization             ....       0.043 sec  (  0.9%)
Density matrix formation    ....       0.002 sec  (  0.0%)
Population analysis         ....       0.081 sec  (  1.6%)
Initial guess               ....       0.043 sec  (  0.9%)
Orbital Transformation      ....       0.000 sec  (  0.0%)
Orbital Orthonormalization  ....       0.000 sec  (  0.0%)
DIIS solution               ....       0.060 sec  (  1.2%)
Grid generation             ....       0.444 sec  (  8.9%)

Maximum memory used throughout the entire SCF-calculation: 59.0 MB

-------------------------   --------------------
FINAL SINGLE POINT ENERGY       -39.825967478173
-------------------------   --------------------

   --->>> g-tensor requested, so NeedSOC=true

                            ***************************************
                            *     ORCA property calculations      *
                            ***************************************

                                    ---------------------
                                    Active property flags
                                    ---------------------
   (+) Dipole Moment
   (+) g-tensor
   (+) Nuclear properties (Hyperfine,Quadrupole)
   (+) Spin-Orbit Integrals are needed


------------------------------------------------------------------------------
                       ORCA ELECTRIC PROPERTIES CALCULATION
------------------------------------------------------------------------------

Dipole Moment Calculation                       ... on
Quadrupole Moment Calculation                   ... off
Polarizability Calculation                      ... off
GBWName                                         ... /home/rwth0701/scratch/cs681498/orcajob__30556438-7Oah/13303.gbw
Electron density                                ... /home/rwth0701/scratch/cs681498/orcajob__30556438-7Oah/13303.scfp
The origin for moment calculation is the CENTER OF MASS  = (-110.492559, -152.380943 -47.810562)

-------------
DIPOLE MOMENT
-------------
                                X             Y             Z
Electronic contribution:     -0.03782      -0.08290      -0.02677
Nuclear contribution   :      0.04083       0.09813       0.04031
                        -----------------------------------------
Total Dipole Moment    :      0.00301       0.01524       0.01353
                        -----------------------------------------
Magnitude (a.u.)       :      0.02060
Magnitude (Debye)      :      0.05236



--------------------
Rotational spectrum 
--------------------
 
Rotational constants in cm-1:    10.184569     8.363462     4.593662 
Rotational constants in MHz : 305325.709819 250730.293338 137714.514735 

 Dipole components along the rotational axes: 
x,y,z [a.u.] :    -0.000419     0.016371     0.012498 
x,y,z [Debye]:    -0.001065     0.041613     0.031768 

 


           ************************************************************
           *        Program running with 4 parallel MPI-processes     *
           *              working on a common directory               *
           ************************************************************
------------------------------------------------------------------------------
                         ORCA SPIN-ORBIT COUPLING CALCULATION
------------------------------------------------------------------------------

GBW file                                    ... /home/rwth0701/scratch/cs681498/orcajob__30556438-7Oah/13303.gbw
Input density                               ... /home/rwth0701/scratch/cs681498/orcajob__30556438-7Oah/13303.scfp
Output integrals                            ... /home/rwth0701/scratch/cs681498/orcajob__30556438-7Oah/13303
Operator type                               ... Mean-field/Effective potential
   One-Electron Terms                       ... 1
   Coulomb Contribution                     ... 3
   Exchange Contribution                    ... 3
   Correlation Contribution                 ... 0
   Maximum number of centers                ... 4
SHARK 2-electron RIJ-SOMF                   ... done (  0.1 sec)
SHARK 1-electron  MaxCenter=4               ... done (  0.0 sec)
SHARK 2-electron DoJ,X=0,1 MaxCenter=1      ... done (  0.1 sec)

Maximum memory used throughout the entire SOC-calculation: 11.3 MB
Total time for SOC:  2.127


           ************************************************************
           *        Program running with 4 parallel MPI-processes     *
           *              working on a common directory               *
           ************************************************************
------------------------------------------------------------------------------
                                ORCA EPR/NMR CALCULATION
------------------------------------------------------------------------------

GBWName                      ... /home/rwth0701/scratch/cs681498/orcajob__30556438-7Oah/13303.gbw
Electron density             ... /home/rwth0701/scratch/cs681498/orcajob__30556438-7Oah/13303.scfp
Spin density                 ... /home/rwth0701/scratch/cs681498/orcajob__30556438-7Oah/13303.scfr
Spin-orbit integrals         ... /home/rwth0701/scratch/cs681498/orcajob__30556438-7Oah/13303
Treatment of gauge           ... GIAO (approximations 1/2el = 0,0)
Details of the CP(SCF) procedure:
       Solver   = POPLE   
       MaxIter  =    64   
       Tolerance=    1.000e-03
       COSX Grid=     1   
       Op-0     =   0-  4 =>   5- 72
       Op-1     =   0-  3 =>   4- 72
Multiplicity                 ... 2
g-tensor                     ... 1
NMR chemical shifts          ... 0
NMR spin-spin couplings      ... 0
NMR spectrum                 ... 0
Number of nuclei for epr/nmr ... 4
   Nucleus:   1H 
       Hyperfine : Isotope=    1 I=   0.500 P= 533.551
       Quadrupole: Isotope=    2 I=   1.000 Q=   0.003
       Spin-Orbit: Zeff=   1.000
       Nuclear Spin-Spin: Gn=   0.000
       EPRNMR Input: 
       rho(0)=N f(grad)=N a(iso)=Y a(dip)=Y a(orb)=Y sigma(nmr)=N spin-spin(nmr)=all-N,DSO-N,PSO-N,FC-N,SD-N
   Nucleus:   2H 
       Hyperfine : Isotope=    1 I=   0.500 P= 533.551
       Quadrupole: Isotope=    2 I=   1.000 Q=   0.003
       Spin-Orbit: Zeff=   1.000
       Nuclear Spin-Spin: Gn=   0.000
       EPRNMR Input: 
       rho(0)=N f(grad)=N a(iso)=Y a(dip)=Y a(orb)=Y sigma(nmr)=N spin-spin(nmr)=all-N,DSO-N,PSO-N,FC-N,SD-N
   Nucleus:   3H 
       Hyperfine : Isotope=    1 I=   0.500 P= 533.551
       Quadrupole: Isotope=    2 I=   1.000 Q=   0.003
       Spin-Orbit: Zeff=   1.000
       Nuclear Spin-Spin: Gn=   0.000
       EPRNMR Input: 
       rho(0)=N f(grad)=N a(iso)=Y a(dip)=Y a(orb)=Y sigma(nmr)=N spin-spin(nmr)=all-N,DSO-N,PSO-N,FC-N,SD-N
   Nucleus:   0C 
       Hyperfine : Isotope=   13 I=   0.500 P= 134.190
       Quadrupole: Isotope=   13 I=   0.500 Q=   0.000
       Spin-Orbit: Zeff=   3.600
       Nuclear Spin-Spin: Gn=   0.000
       EPRNMR Input: 
       rho(0)=N f(grad)=N a(iso)=Y a(dip)=Y a(orb)=Y sigma(nmr)=N spin-spin(nmr)=all-N,DSO-N,PSO-N,FC-N,SD-N
Forming RHS of the CP-SCF equations         ... 
Calculating right hand sides for GIAO treatment        ... 
  Entering RightHandSide GIAO. ScalHFX=    0.2000 NeedHFX=1
     -> 1-electron GIAO integrals will be done analytically
     -> RIJCOSX used in SCF. Same chosen for GIAO calculation.
     Making grid for GIAO integrations   ...

GRID GIAO
---------

General Integration Accuracy     IntAcc      ... 4.388
Radial Grid Type                 RadialGrid  ... OptM3 with GC (2021)
Angular Grid (max. ang.)         AngularGrid ... 4 (Lebedev-302)
Angular grid pruning method      GridPruning ... 4 (adaptive)
Weight generation scheme         WeightScheme... Becke
Basis function cutoff            BFCut       ... 1.0000e-10
Integration weight cutoff        WCut        ... 1.0000e-14
Angular grids for H and He will be reduced by one unit
Partially contracted basis set               ... off
Rotationally invariant grid construction     ... off

Total number of grid points                  ...    17048
Total number of batches                      ...      268
Average number of points per batch           ...       63
Average number of grid points per atom       ...     4262

  One-electron GIAO integrals (SHARK)     ... done
  Calculating G(B)[P]                     ... (RI-J: SHARK-ok) (COSX-ok) (add-J+K:ok) => dG/dB done
  DFT XC-terms                            ... done
  Extracting occupied and virtual blocks  ... 
  Operator  0  NO=   5 NV=  68 
  Operator  1  NO=   4 NV=  69 
  Transforming and RHS contribution       ... done
  Adding eps_i * S(B)_ai terms            ... done
  Projecting overlap derivatives          ... done
  Building G[dS/dB_ij] (COSX)             ... done
  Transforming to MO basis                ... done
  Summing G[dS/dB_ij] into RHS contribs.  ... done

  GIAO profiling information: 
    Total GIAO time               ...       0.8 sec
       GIAO 1-electron integrals  ...       0.0 sec (  0.6%)
       GIAO G(dS/dB) terms        ...       0.1 sec ( 13.4%)
       GIAO RI-J                  ...       0.1 sec ( 13.0%)
       GIAO COSX                  ...       0.2 sec ( 18.9%)
       GIAO XC-terms              ...       0.3 sec ( 36.6%)

  GIAO right hand side done


------------------------------------------------------------------------------
                           ORCA CP-SCF CALCULATION
------------------------------------------------------------------------------

Input orbitals are from        ... /home/rwth0701/scratch/cs681498/orcajob__30556438-7Oah/13303.gbw
Input Perturbation             ... /home/rwth0701/scratch/cs681498/orcajob__30556438-7Oah/13303.pin.tmp
Wavefunction output            ... /home/rwth0701/scratch/cs681498/orcajob__30556438-7Oah/13303.pout.tmp
Perturbation mode              ... Imaginary perturbation
Solver                         ... POPLE
Max. number of iterations      ... 64
Convergence tolerance          ... 1.000e-03
Integral handling              ... Direct
DFT GridXC                     ... 1
COSX GridX                     ... 1
COSX IntAccX                   ... 3.067
COSX Algorithm                 ... Auto
Number of perturbations        ... 3
Number of operators            ... 2
Orbital ranges used for CP-SCF:
 Operator 0:  Orbitals   0...  4  to   5... 72
 Operator 1:  Orbitals   0...  3  to   4... 72
Variables per perturbation     ... 616
DFT calculation                         ... on
XC functional terms                     ... off
Hybrid DFT                              ... on
   Exchange mixing (SCF)                ...  0.200
   Exchange mixing (CP-SCF)             ...  0.200
   GGA exch. scaling(SCF)               ...  0.720
   GGA exch. scaling (CP-SCF)           ...  0.720
   GGA corr. scaling (SCF)              ...  0.810
   GGA corr. scaling (CP-SCF)           ...  0.810

CP-SCF GRID
-----------

General Integration Accuracy     IntAcc      ... 3.467
Radial Grid Type                 RadialGrid  ... OptM3 with GC (2021)
Angular Grid (max. ang.)         AngularGrid ... 1 (Lebedev-50)
Angular grid pruning method      GridPruning ... 4 (adaptive)
Weight generation scheme         WeightScheme... Becke
Basis function cutoff            BFCut       ... 1.0000e-10
Integration weight cutoff        WCut        ... 1.0000e-14
Angular grids for H and He will be reduced by one unit
Partially contracted basis set               ... off
Rotationally invariant grid construction     ... off

Total number of grid points                  ...     2343
Total number of batches                      ...       38
Average number of points per batch           ...       61
Average number of grid points per atom       ...      586

CP-SCF GRIDX
------------

General Integration Accuracy     IntAcc      ... 3.067
Radial Grid Type                 RadialGrid  ... OptM3 with GC (2021)
Angular Grid (max. ang.)         AngularGrid ... 1 (Lebedev-50)
Angular grid pruning method      GridPruning ... 4 (adaptive)
Weight generation scheme         WeightScheme... Becke
Basis function cutoff            BFCut       ... 1.0000e-10
Integration weight cutoff        WCut        ... 1.0000e-14
Angular grids for H and He will be reduced by one unit
Partially contracted basis set               ... on
Rotationally invariant grid construction     ... off

Total number of grid points                  ...     1073
Total number of batches                      ...       20
Average number of points per batch           ...       53
Average number of grid points per atom       ...      268

Memory available               ... 1014.6 MB
Memory needed per perturbation ...   0.4 MB
Perturbations treated per batch... 3
Number of batches              ... 1
     CP-SCF ITERATION   0:   9.0861e+00 (   0.1 sec   0/  3 done)
     CP-SCF ITERATION   1:   6.6486e-02 (   0.1 sec   0/  3 done)
     CP-SCF ITERATION   2:   3.2176e-03 (   0.1 sec   0/  3 done)
     CP-SCF ITERATION   3:   2.2346e-04 (   0.1 sec   3/  3 done)
                    *** THE CP-SCF HAS CONVERGED ***

Forming final perturbed densities           ... done
Transforming perturbed density to AO basis  ... done

Magnetic field perturbation calculated in  1.302 sec
GIAO: Diamagnetic terms      (analytic)     (SHARK) ... done
GIAO: 1el-Paramagnetic terms (analytic)     (SHARK) ... done

-------------------
ELECTRONIC G-MATRIX
-------------------

 The g-matrix: 
              2.0029059   -0.0000106    0.0000042
             -0.0000098    2.0028656    0.0000425
              0.0000166    0.0000637    2.0022285

 gel          2.0023193    2.0023193    2.0023193
 gRMC        -0.0001276   -0.0001276   -0.0001276
 gDSO(tot)    0.0000344    0.0000706    0.0000709
 gPSO(tot)   -0.0000022    0.0006054    0.0006457
             ----------   ----------   ----------
 g(tot)       2.0022239    2.0028678    2.0029084 iso=  2.0026667
 Delta-g     -0.0000953    0.0005485    0.0005891 iso=  0.0003474
 Orientation: 
  X          -0.0164640    0.2355480   -0.9717233
  Y          -0.0827066    0.9682036    0.2360961
  Z           0.9964379    0.0842551    0.0035409

Notes:  (1) The g-matrix conforms to the "BgS" spin Hamiltonian convention. 
        (2) The principal values are square roots of the eigenvalues of g*gT.
        (3) Orientations are eigenvectors of g*gT written as column vectors.
        (4) Individual contributions are projections of the full matrices onto the eigenvectors of g*gT.
        (5) Tensor is right-handed.


-----------------------------------------
ELECTRIC AND MAGNETIC HYPERFINE STRUCTURE
-----------------------------------------

 -----------------------------------------------------------
 Nucleus   1H : A:ISTP=    1 I=  0.5 P=533.5514 MHz/au**3
                Q:ISTP=    2 I=  1.0 Q=  0.0029 barn     
 -----------------------------------------------------------
 Solving for nuclear perturbation:
Forming RHS of the CP-SCF equations         ... 
Calc. nucleus orbit integrals (SHARK)       ... done

------------------------------------------------------------------------------
                           ORCA CP-SCF CALCULATION
------------------------------------------------------------------------------

Input orbitals are from        ... /home/rwth0701/scratch/cs681498/orcajob__30556438-7Oah/13303.gbw
Input Perturbation             ... /home/rwth0701/scratch/cs681498/orcajob__30556438-7Oah/13303.pin.tmp
Wavefunction output            ... /home/rwth0701/scratch/cs681498/orcajob__30556438-7Oah/13303.pout.tmp
Perturbation mode              ... Imaginary perturbation
Solver                         ... POPLE
Max. number of iterations      ... 64
Convergence tolerance          ... 1.000e-03
Integral handling              ... Direct
DFT GridXC                     ... 1
COSX GridX                     ... 1
COSX IntAccX                   ... 3.067
COSX Algorithm                 ... Auto
Number of perturbations        ... 3
Number of operators            ... 2
Orbital ranges used for CP-SCF:
 Operator 0:  Orbitals   0...  4  to   5... 72
 Operator 1:  Orbitals   0...  3  to   4... 72
Variables per perturbation     ... 616
DFT calculation                         ... on
XC functional terms                     ... off
Hybrid DFT                              ... on
   Exchange mixing (SCF)                ...  0.200
   Exchange mixing (CP-SCF)             ...  0.200
   GGA exch. scaling(SCF)               ...  0.720
   GGA exch. scaling (CP-SCF)           ...  0.720
   GGA corr. scaling (SCF)              ...  0.810
   GGA corr. scaling (CP-SCF)           ...  0.810

CP-SCF GRID
-----------

General Integration Accuracy     IntAcc      ... 3.467
Radial Grid Type                 RadialGrid  ... OptM3 with GC (2021)
Angular Grid (max. ang.)         AngularGrid ... 1 (Lebedev-50)
Angular grid pruning method      GridPruning ... 4 (adaptive)
Weight generation scheme         WeightScheme... Becke
Basis function cutoff            BFCut       ... 1.0000e-10
Integration weight cutoff        WCut        ... 1.0000e-14
Angular grids for H and He will be reduced by one unit
Partially contracted basis set               ... off
Rotationally invariant grid construction     ... off

Total number of grid points                  ...     2343
Total number of batches                      ...       38
Average number of points per batch           ...       61
Average number of grid points per atom       ...      586

CP-SCF GRIDX
------------

General Integration Accuracy     IntAcc      ... 3.067
Radial Grid Type                 RadialGrid  ... OptM3 with GC (2021)
Angular Grid (max. ang.)         AngularGrid ... 1 (Lebedev-50)
Angular grid pruning method      GridPruning ... 4 (adaptive)
Weight generation scheme         WeightScheme... Becke
Basis function cutoff            BFCut       ... 1.0000e-10
Integration weight cutoff        WCut        ... 1.0000e-14
Angular grids for H and He will be reduced by one unit
Partially contracted basis set               ... on
Rotationally invariant grid construction     ... off

Total number of grid points                  ...     1073
Total number of batches                      ...       20
Average number of points per batch           ...       53
Average number of grid points per atom       ...      268

Memory available               ... 968.0 MB
Memory needed per perturbation ...   0.4 MB
Perturbations treated per batch... 3
Number of batches              ... 1
     CP-SCF ITERATION   0:   6.2329e-02 (   0.1 sec   0/  3 done)
     CP-SCF ITERATION   1:   2.1024e-03 (   0.1 sec   1/  3 done)
     CP-SCF ITERATION   2:   1.5229e-04 (   0.1 sec   3/  3 done)
                    *** THE CP-SCF HAS CONVERGED ***

Forming final perturbed densities           ... done
Transforming perturbed density to AO basis  ... done

 Raw HFC matrix (all values in MHz): 
 -----------------------------------
               -98.7536              16.3502               0.9523
                16.3503             -28.7992               2.8985
                 0.9523               2.8986             -62.4215

 A(FC)         -63.3389             -63.3389             -63.3389
 A(SD)          38.4066               0.6744             -39.0811
 A(ORB+DIA)      0.0117              -0.0006               0.0312    A(PC) =   0.0141
 A(ORB)          0.0069               0.0005               0.0298    A(PC) =   0.0124
 A(DIA)          0.0048              -0.0011               0.0014    A(PC) =   0.0017
             ----------           ----------           ----------
 A(Tot)        -24.9206             -62.6650            -102.3887    A(iso)=  -63.3248
 Orientation: 
  X           0.2164968           -0.0101325            0.9762307
  Y           0.9729424           -0.0804150           -0.2166022
  Z           0.0806983            0.9967100           -0.0075513

Notes:  (1) The A matrix conforms to the "SAI" spin Hamiltonian convention.
        (2) Tensor is right-handed.

 -----------------------------------------------------------
 Nucleus   2H : A:ISTP=    1 I=  0.5 P=533.5514 MHz/au**3
                Q:ISTP=    2 I=  1.0 Q=  0.0029 barn     
 -----------------------------------------------------------
 Solving for nuclear perturbation:
Forming RHS of the CP-SCF equations         ... 
Calc. nucleus orbit integrals (SHARK)       ... done

------------------------------------------------------------------------------
                           ORCA CP-SCF CALCULATION
------------------------------------------------------------------------------

Input orbitals are from        ... /home/rwth0701/scratch/cs681498/orcajob__30556438-7Oah/13303.gbw
Input Perturbation             ... /home/rwth0701/scratch/cs681498/orcajob__30556438-7Oah/13303.pin.tmp
Wavefunction output            ... /home/rwth0701/scratch/cs681498/orcajob__30556438-7Oah/13303.pout.tmp
Perturbation mode              ... Imaginary perturbation
Solver                         ... POPLE
Max. number of iterations      ... 64
Convergence tolerance          ... 1.000e-03
Integral handling              ... Direct
DFT GridXC                     ... 1
COSX GridX                     ... 1
COSX IntAccX                   ... 3.067
COSX Algorithm                 ... Auto
Number of perturbations        ... 3
Number of operators            ... 2
Orbital ranges used for CP-SCF:
 Operator 0:  Orbitals   0...  4  to   5... 72
 Operator 1:  Orbitals   0...  3  to   4... 72
Variables per perturbation     ... 616
DFT calculation                         ... on
XC functional terms                     ... off
Hybrid DFT                              ... on
   Exchange mixing (SCF)                ...  0.200
   Exchange mixing (CP-SCF)             ...  0.200
   GGA exch. scaling(SCF)               ...  0.720
   GGA exch. scaling (CP-SCF)           ...  0.720
   GGA corr. scaling (SCF)              ...  0.810
   GGA corr. scaling (CP-SCF)           ...  0.810

CP-SCF GRID
-----------

General Integration Accuracy     IntAcc      ... 3.467
Radial Grid Type                 RadialGrid  ... OptM3 with GC (2021)
Angular Grid (max. ang.)         AngularGrid ... 1 (Lebedev-50)
Angular grid pruning method      GridPruning ... 4 (adaptive)
Weight generation scheme         WeightScheme... Becke
Basis function cutoff            BFCut       ... 1.0000e-10
Integration weight cutoff        WCut        ... 1.0000e-14
Angular grids for H and He will be reduced by one unit
Partially contracted basis set               ... off
Rotationally invariant grid construction     ... off

Total number of grid points                  ...     2343
Total number of batches                      ...       38
Average number of points per batch           ...       61
Average number of grid points per atom       ...      586

CP-SCF GRIDX
------------

General Integration Accuracy     IntAcc      ... 3.067
Radial Grid Type                 RadialGrid  ... OptM3 with GC (2021)
Angular Grid (max. ang.)         AngularGrid ... 1 (Lebedev-50)
Angular grid pruning method      GridPruning ... 4 (adaptive)
Weight generation scheme         WeightScheme... Becke
Basis function cutoff            BFCut       ... 1.0000e-10
Integration weight cutoff        WCut        ... 1.0000e-14
Angular grids for H and He will be reduced by one unit
Partially contracted basis set               ... on
Rotationally invariant grid construction     ... off

Total number of grid points                  ...     1073
Total number of batches                      ...       20
Average number of points per batch           ...       53
Average number of grid points per atom       ...      268

Memory available               ... 967.8 MB
Memory needed per perturbation ...   0.4 MB
Perturbations treated per batch... 3
Number of batches              ... 1
     CP-SCF ITERATION   0:   6.6723e-02 (   0.1 sec   0/  3 done)
     CP-SCF ITERATION   1:   2.5184e-03 (   0.1 sec   1/  3 done)
     CP-SCF ITERATION   2:   1.8718e-04 (   0.1 sec   3/  3 done)
                    *** THE CP-SCF HAS CONVERGED ***

Forming final perturbed densities           ... done
Transforming perturbed density to AO basis  ... done

 Raw HFC matrix (all values in MHz): 
 -----------------------------------
               -33.3349              17.3153               0.7545
                17.3152            -101.6142              -2.2203
                 0.7545              -2.2203             -67.2075

 A(FC)         -67.3992             -67.3992             -67.3992
 A(SD)          38.1937               0.3320             -38.5258
 A(ORB+DIA)      0.0118              -0.0006               0.0298    A(PC) =   0.0136
 A(ORB)          0.0070               0.0005               0.0285    A(PC) =   0.0120
 A(DIA)          0.0047              -0.0011               0.0013    A(PC) =   0.0016
             ----------           ----------           ----------
 A(Tot)        -29.1937             -67.0678            -105.8952    A(iso)=  -67.3855
 Orientation: 
  X           0.9726107           -0.0084333           -0.2322871
  Y           0.2323694            0.0599250            0.9707798
  Z           0.0057329           -0.9981673            0.0602434

Notes:  (1) The A matrix conforms to the "SAI" spin Hamiltonian convention.
        (2) Tensor is right-handed.

 -----------------------------------------------------------
 Nucleus   3H : A:ISTP=    1 I=  0.5 P=533.5514 MHz/au**3
                Q:ISTP=    2 I=  1.0 Q=  0.0029 barn     
 -----------------------------------------------------------
 Solving for nuclear perturbation:
Forming RHS of the CP-SCF equations         ... 
Calc. nucleus orbit integrals (SHARK)       ... done

------------------------------------------------------------------------------
                           ORCA CP-SCF CALCULATION
------------------------------------------------------------------------------

Input orbitals are from        ... /home/rwth0701/scratch/cs681498/orcajob__30556438-7Oah/13303.gbw
Input Perturbation             ... /home/rwth0701/scratch/cs681498/orcajob__30556438-7Oah/13303.pin.tmp
Wavefunction output            ... /home/rwth0701/scratch/cs681498/orcajob__30556438-7Oah/13303.pout.tmp
Perturbation mode              ... Imaginary perturbation
Solver                         ... POPLE
Max. number of iterations      ... 64
Convergence tolerance          ... 1.000e-03
Integral handling              ... Direct
DFT GridXC                     ... 1
COSX GridX                     ... 1
COSX IntAccX                   ... 3.067
COSX Algorithm                 ... Auto
Number of perturbations        ... 3
Number of operators            ... 2
Orbital ranges used for CP-SCF:
 Operator 0:  Orbitals   0...  4  to   5... 72
 Operator 1:  Orbitals   0...  3  to   4... 72
Variables per perturbation     ... 616
DFT calculation                         ... on
XC functional terms                     ... off
Hybrid DFT                              ... on
   Exchange mixing (SCF)                ...  0.200
   Exchange mixing (CP-SCF)             ...  0.200
   GGA exch. scaling(SCF)               ...  0.720
   GGA exch. scaling (CP-SCF)           ...  0.720
   GGA corr. scaling (SCF)              ...  0.810
   GGA corr. scaling (CP-SCF)           ...  0.810

CP-SCF GRID
-----------

General Integration Accuracy     IntAcc      ... 3.467
Radial Grid Type                 RadialGrid  ... OptM3 with GC (2021)
Angular Grid (max. ang.)         AngularGrid ... 1 (Lebedev-50)
Angular grid pruning method      GridPruning ... 4 (adaptive)
Weight generation scheme         WeightScheme... Becke
Basis function cutoff            BFCut       ... 1.0000e-10
Integration weight cutoff        WCut        ... 1.0000e-14
Angular grids for H and He will be reduced by one unit
Partially contracted basis set               ... off
Rotationally invariant grid construction     ... off

Total number of grid points                  ...     2343
Total number of batches                      ...       38
Average number of points per batch           ...       61
Average number of grid points per atom       ...      586

CP-SCF GRIDX
------------

General Integration Accuracy     IntAcc      ... 3.067
Radial Grid Type                 RadialGrid  ... OptM3 with GC (2021)
Angular Grid (max. ang.)         AngularGrid ... 1 (Lebedev-50)
Angular grid pruning method      GridPruning ... 4 (adaptive)
Weight generation scheme         WeightScheme... Becke
Basis function cutoff            BFCut       ... 1.0000e-10
Integration weight cutoff        WCut        ... 1.0000e-14
Angular grids for H and He will be reduced by one unit
Partially contracted basis set               ... on
Rotationally invariant grid construction     ... off

Total number of grid points                  ...     1073
Total number of batches                      ...       20
Average number of points per batch           ...       53
Average number of grid points per atom       ...      268

Memory available               ... 967.7 MB
Memory needed per perturbation ...   0.4 MB
Perturbations treated per batch... 3
Number of batches              ... 1
     CP-SCF ITERATION   0:   6.0875e-02 (   0.1 sec   0/  3 done)
     CP-SCF ITERATION   1:   2.4457e-03 (   0.1 sec   1/  3 done)
     CP-SCF ITERATION   2:   2.2774e-04 (   0.1 sec   3/  3 done)
                    *** THE CP-SCF HAS CONVERGED ***

Forming final perturbed densities           ... done
Transforming perturbed density to AO basis  ... done

 Raw HFC matrix (all values in MHz): 
 -----------------------------------
               -57.7633             -36.1128              -1.7653
               -36.1130             -77.6349              -1.1751
                -1.7653              -1.1751             -68.4137

 A(FC)         -67.9509             -67.9509             -67.9509
 A(SD)          37.7069              -0.3657             -37.3412
 A(ORB+DIA)      0.0122              -0.0006               0.0292    A(PC) =   0.0136
 A(ORB)          0.0076               0.0005               0.0279    A(PC) =   0.0120
 A(DIA)          0.0046              -0.0011               0.0013    A(PC) =   0.0016
             ----------           ----------           ----------
 A(Tot)        -30.2318             -68.3172            -105.2629    A(iso)=  -67.9373
 Orientation: 
  X           0.7955487            0.0185001            0.6056072
  Y          -0.6056180            0.0542093            0.7939069
  Z          -0.0181422           -0.9983582            0.0543301

Notes:  (1) The A matrix conforms to the "SAI" spin Hamiltonian convention.
        (2) Tensor is right-handed.

 -----------------------------------------------------------
 Nucleus   0C : A:ISTP=   13 I=  0.5 P=134.1903 MHz/au**3
                Q:ISTP=   13 I=  0.5 Q=  0.0000 barn     
 -----------------------------------------------------------
 Solving for nuclear perturbation:
Forming RHS of the CP-SCF equations         ... 
Calc. nucleus orbit integrals (SHARK)       ... done

------------------------------------------------------------------------------
                           ORCA CP-SCF CALCULATION
------------------------------------------------------------------------------

Input orbitals are from        ... /home/rwth0701/scratch/cs681498/orcajob__30556438-7Oah/13303.gbw
Input Perturbation             ... /home/rwth0701/scratch/cs681498/orcajob__30556438-7Oah/13303.pin.tmp
Wavefunction output            ... /home/rwth0701/scratch/cs681498/orcajob__30556438-7Oah/13303.pout.tmp
Perturbation mode              ... Imaginary perturbation
Solver                         ... POPLE
Max. number of iterations      ... 64
Convergence tolerance          ... 1.000e-03
Integral handling              ... Direct
DFT GridXC                     ... 1
COSX GridX                     ... 1
COSX IntAccX                   ... 3.067
COSX Algorithm                 ... Auto
Number of perturbations        ... 3
Number of operators            ... 2
Orbital ranges used for CP-SCF:
 Operator 0:  Orbitals   0...  4  to   5... 72
 Operator 1:  Orbitals   0...  3  to   4... 72
Variables per perturbation     ... 616
DFT calculation                         ... on
XC functional terms                     ... off
Hybrid DFT                              ... on
   Exchange mixing (SCF)                ...  0.200
   Exchange mixing (CP-SCF)             ...  0.200
   GGA exch. scaling(SCF)               ...  0.720
   GGA exch. scaling (CP-SCF)           ...  0.720
   GGA corr. scaling (SCF)              ...  0.810
   GGA corr. scaling (CP-SCF)           ...  0.810

CP-SCF GRID
-----------

General Integration Accuracy     IntAcc      ... 3.467
Radial Grid Type                 RadialGrid  ... OptM3 with GC (2021)
Angular Grid (max. ang.)         AngularGrid ... 1 (Lebedev-50)
Angular grid pruning method      GridPruning ... 4 (adaptive)
Weight generation scheme         WeightScheme... Becke
Basis function cutoff            BFCut       ... 1.0000e-10
Integration weight cutoff        WCut        ... 1.0000e-14
Angular grids for H and He will be reduced by one unit
Partially contracted basis set               ... off
Rotationally invariant grid construction     ... off

Total number of grid points                  ...     2343
Total number of batches                      ...       38
Average number of points per batch           ...       61
Average number of grid points per atom       ...      586

CP-SCF GRIDX
------------

General Integration Accuracy     IntAcc      ... 3.067
Radial Grid Type                 RadialGrid  ... OptM3 with GC (2021)
Angular Grid (max. ang.)         AngularGrid ... 1 (Lebedev-50)
Angular grid pruning method      GridPruning ... 4 (adaptive)
Weight generation scheme         WeightScheme... Becke
Basis function cutoff            BFCut       ... 1.0000e-10
Integration weight cutoff        WCut        ... 1.0000e-14
Angular grids for H and He will be reduced by one unit
Partially contracted basis set               ... on
Rotationally invariant grid construction     ... off

Total number of grid points                  ...     1073
Total number of batches                      ...       20
Average number of points per batch           ...       53
Average number of grid points per atom       ...      268

Memory available               ... 967.6 MB
Memory needed per perturbation ...   0.4 MB
Perturbations treated per batch... 3
Number of batches              ... 1
     CP-SCF ITERATION   0:   1.1649e+00 (   0.1 sec   0/  3 done)
     CP-SCF ITERATION   1:   4.3369e-02 (   0.1 sec   0/  3 done)
     CP-SCF ITERATION   2:   3.1531e-03 (   0.1 sec   1/  3 done)
     CP-SCF ITERATION   3:   1.3177e-04 (   0.1 sec   3/  3 done)
                    *** THE CP-SCF HAS CONVERGED ***

Forming final perturbed densities           ... done
Transforming perturbed density to AO basis  ... done

 Raw HFC matrix (all values in MHz): 
 -----------------------------------
                 7.4297               0.1287              -1.5758
                 0.1287               8.9748             -15.3886
                -1.5758             -15.3885             248.5453

 A(FC)          88.4361              88.4361              88.4361
 A(SD)         -80.8489             -80.2681             161.1170
 A(ORB+DIA)     -0.1692              -0.1762              -0.0130    A(PC) =  -0.1195
 A(ORB)         -0.1696              -0.1766              -0.0129    A(PC) =  -0.1197
 A(DIA)          0.0004               0.0004              -0.0001    A(PC) =   0.0002
             ----------           ----------           ----------
 A(Tot)          7.4181               7.9918             249.5400    A(iso)=   88.3166
 Orientation: 
  X           0.9988009            0.0485188           -0.0065292
  Y          -0.0488372            0.9967645           -0.0638400
  Z           0.0034106            0.0640823            0.9979388

Notes:  (1) The A matrix conforms to the "SAI" spin Hamiltonian convention.
        (2) Tensor is right-handed.


--------------------------------------------------------------------------------
----------------------------------------------------------------------------
                           ORCA EULER ANGLE PROGRAM
----------------------------------------------------------------------------

Only g-tensor available        -->  using g-tensor as reference tensor

Reference tensor               ...  g

g-tensor ordering              ...  |g_min> --> |gx>
                                    |g_mid> --> |gy>
                                    |g_max> --> |gz>

A- and EFG-tensor ordering     ...  the axes |Ax>, |Qx>, |Ay>, etc. are assigned
                                    such that the Euler rotation is minimal. You
                                    can find the respective eigenvalues as Ax,
                                    EFGx, Ay, etc. in the tables below.
                                    The relation of |Ax>, |Ay>,  etc. to Amin, Amid, etc.
                                    (as printed in the ORCA EPR/NMR CALCULATION Output)
                                    is obtained in the detailed printout.

Euler rotation around          ...  z - y - z
   First rotation              -->  by alpha around z
   Second rotation             -->  by beta around y'
   Third rotation              -->  by gamma around z''
   Positive / Negative angle   -->  clockwise / counterclockwise rotation

Plot EFG-tensors                    (-)
Plot HFC-tensors                    (-)
Detailed Printout                   (-)

-------------------------------------------------------------------------
          Euler rotation of hyperfine tensor to g-tensor
-------------------------------------------------------------------------

-------------------------------------------------------------------
 Atom  |   Alpha    Beta    Gamma   |   Ax       Ay       Az 
       |          [degrees]         |           [MHz]         
-------------------------------------------------------------------
  1H      106.0      1.2   -106.2     -62.67   -24.92  -102.39
  2H       92.4     27.1    -93.7     -67.07  -105.90   -29.19
  3H      -88.8     23.6     87.3     -68.32  -105.26   -30.23
  0C       91.6     10.9    -92.7     249.54     7.99     7.42
-------------------------------------------------------------------


Maximum memory used throughout the entire EPRNMR-calculation: 67.6 MB

Timings for individual modules:

Sum of individual times         ...       17.473 sec (=   0.291 min)
GTO integral calculation        ...        2.495 sec (=   0.042 min)  14.3 %
Spin-Orbit-Coupling Matrices    ...        2.119 sec (=   0.035 min)  12.1 %
SCF iterations                  ...        6.877 sec (=   0.115 min)  39.4 %
EPR/NMR calculation             ...        5.982 sec (=   0.100 min)  34.2 %
                             ****ORCA TERMINATED NORMALLY****
TOTAL RUN TIME: 0 days 0 hours 0 minutes 19 seconds 736 msec
