4
# ORCA AIMD Position Step 0, t=0.00 fs, E_Pot=-39.82314971 Hartree, Unit is Angstrom
 C     12.6022894301     -0.6266926546     -7.1846322451
 H     12.3092559322     -1.4837953326     -6.4853588307
 H     13.1769622509      0.2068786471     -6.7587485437
 H     12.0584043831     -0.4595369654     -8.0963961825
4
# ORCA AIMD Position Step 1, t=0.50 fs, E_Pot=-39.82403801 Hartree, Unit is Angstrom
 C     12.5948740344     -0.6224174253     -7.1772714911
 H     12.3158592490     -1.4696949137     -6.4847275399
 H     13.1706291417      0.2263186464     -6.7588568520
 H     12.0655495713     -0.4973526129     -8.1042799190
4
# ORCA AIMD Position Step 2, t=1.00 fs, E_Pot=-39.82476076 Hartree, Unit is Angstrom
 C     12.5874406050     -0.6181961893     -7.1695748322
 H     12.3234793232     -1.4529645785     -6.4864547222
 H     13.1633297021      0.2441025143     -6.7598890059
 H     12.0726273151     -0.5353686085     -8.1126469174
4
# ORCA AIMD Position Step 3, t=1.50 fs, E_Pot=-39.82508622 Hartree, Unit is Angstrom
 C     12.5800228194     -0.6139362945     -7.1616110482
 H     12.3318445781     -1.4344985810     -6.4896668275
 H     13.1547191610      0.2598372157     -6.7621006511
 H     12.0798507822     -0.5734020521     -8.1212950006
4
# ORCA AIMD Position Step 4, t=2.00 fs, E_Pot=-39.82482713 Hartree, Unit is Angstrom
 C     12.5726434306     -0.6095361141     -7.1534891005
 H     12.3406244315     -1.4154485524     -6.4932658268
 H     13.1445666925      0.2732685955     -6.7656681369
 H     12.0875084000     -0.6112579325     -8.1298476870
4
# ORCA AIMD Position Step 5, t=2.50 fs, E_Pot=-39.82395892 Hartree, Unit is Angstrom
 C     12.5653153650     -0.6048918911     -7.1453503731
 H     12.3494540026     -1.3971717222     -6.4959745814
 H     13.1327603033      0.2842957290     -6.7706859919
 H     12.0959207906     -0.6487135239     -8.1378022312
4
# ORCA AIMD Position Step 6, t=3.00 fs, E_Pot=-39.82270660 Hartree, Unit is Angstrom
 C     12.5580410720     -0.5999096406     -7.1373538655
 H     12.3579774889     -1.3811078534     -6.4964418823
 H     13.1193103913      0.2929881310     -6.7771649126
 H     12.1054010676     -0.6855169771     -8.1446018734
4
# ORCA AIMD Position Step 7, t=3.50 fs, E_Pot=-39.82150915 Hartree, Unit is Angstrom
 C     12.5508107430     -0.5945226233     -7.1296563761
 H     12.3659066998     -1.3685734522     -6.4934145598
 H     13.1043480281      0.2995914470     -6.7850364040
 H     12.1162190406     -0.7213908042     -8.1496952089
4
# ORCA AIMD Position Step 8, t=4.00 fs, E_Pot=-39.82081721 Hartree, Unit is Angstrom
 C     12.5435996880     -0.5887122244     -7.1223897683
 H     12.3730792348     -1.3605053354     -6.4859504622
 H     13.0881212948      0.3045315329     -6.7941584155
 H     12.1285782117     -0.7560436574     -8.1525894974
4
# ORCA AIMD Position Step 9, t=4.50 fs, E_Pot=-39.82082490 Hartree, Unit is Angstrom
 C     12.5363672991     -0.5825252552     -7.1156410890
 H     12.3794920918     -1.3572332207     -6.4736079570
 H     13.0709858741      0.3084087089     -6.8043245093
 H     12.1426044147     -0.7891858692     -8.1528901741
4
# ORCA AIMD Position Step 10, t=5.00 fs, E_Pot=-39.82134710 Hartree, Unit is Angstrom
 C     12.5290597624     -0.5760787924     -7.1094420163
 H     12.3852913733     -1.3583815032     -6.4565318933
 H     13.0533857273      0.3119742905     -6.8152781460
 H     12.1583435570     -0.8205466481     -8.1503270412
4
# ORCA AIMD Position Step 11, t=5.50 fs, E_Pot=-39.82195955 Hartree, Unit is Angstrom
 C     12.5216167567     -0.5695493083     -7.1037707964
 H     12.3907217915     -1.3629423704     -6.4354004066
 H     13.0358236496      0.3160866348     -6.8267322142
 H     12.1757619234     -0.8498866485     -8.1447647454
4
# ORCA AIMD Position Step 12, t=6.00 fs, E_Pot=-39.82227997 Hartree, Unit is Angstrom
 C     12.5139811702     -0.5631429632     -7.0985628776
 H     12.3960555162     -1.3695087518     -6.4112468318
 H     13.0188001361      0.3216161261     -6.8384021807
 H     12.1947626078     -0.8770240655     -8.1362202890
4
# ORCA AIMD Position Step 13, t=6.50 fs, E_Pot=-39.82216297 Hartree, Unit is Angstrom
 C     12.5061085690     -0.5570660203     -7.0937251793
 H     12.4015354448     -1.3765187411     -6.3852634574
 H     13.0027544719      0.3293418840     -6.8500383529
 H     12.2151881222     -0.9018394441     -8.1248562171
4
# ORCA AIMD Position Step 14, t=7.00 fs, E_Pot=-39.82169983 Hartree, Unit is Angstrom
 C     12.4979750405     -0.5514939013     -7.0891480241
 H     12.4073394323     -1.3824796190     -6.3586225653
 H     12.9879924586      0.3398239131     -6.8614587077
 H     12.2368347991     -0.9242924321     -8.1109841472
4
# ORCA AIMD Position Step 15, t=7.50 fs, E_Pot=-39.82108540 Hartree, Unit is Angstrom
 C     12.4895815828     -0.5465500603     -7.0847132921
 H     12.4135694722     -1.3861035410     -6.3323639984
 H     12.9746313245      0.3532967033     -6.8725692816
 H     12.2594663693     -0.9444313230     -8.0950597858
4
# ORCA AIMD Position Step 16, t=8.00 fs, E_Pot=-39.82048339 Hartree, Unit is Angstrom
 C     12.4809542837     -0.5422959015     -7.0803000267
 H     12.4202565090     -1.3863679236     -6.3073411086
 H     12.9625765450      0.3696137743     -6.8833654667
 H     12.2828303827     -0.9623972926     -8.0776694865
4
# ORCA AIMD Position Step 17, t=8.50 fs, E_Pot=-39.81997480 Hartree, Unit is Angstrom
 C     12.4721403032     -0.5387316096     -7.0757895200
 H     12.4273724296     -1.3825251973     -6.2842061601
 H     12.9515391408      0.3882632335     -6.8939135520
 H     12.3066770634     -0.9784202657     -8.0595034262
4
# ORCA AIMD Position Step 18, t=9.00 fs, E_Pot=-39.81958761 Hartree, Unit is Angstrom
 C     12.4632007753     -0.5358055705     -7.0710713014
 H     12.4348436918     -1.3740873505     -6.2634151430
 H     12.9410870867      0.4084489781     -6.9043197044
 H     12.3307790280     -0.9928032929     -8.0413109365
4
# ORCA AIMD Position Step 19, t=9.50 fs, E_Pot=-39.81935031 Hartree, Unit is Angstrom
 C     12.4542025612     -0.5334287338     -7.0660504407
 H     12.4425640404     -1.3608036115     -6.2452372504
 H     12.9307134495      0.4292104021     -6.9146971715
 H     12.3549485595     -1.0058935137     -8.0238368033
4
# ORCA AIMD Position Step 20, t=10.00 fs, E_Pot=-39.81931347 Hartree, Unit is Angstrom
 C     12.4452108585     -0.5314901197     -7.0606557936
 H     12.4504058121     -1.3426417261     -6.2297603141
 H     12.9199023072      0.4495469728     -6.9251405127
 H     12.3790480951     -1.0180408574     -8.0077429200
4
# ORCA AIMD Position Step 21, t=10.50 fs, E_Pot=-39.81952260 Hartree, Unit is Angstrom
 C     12.4362840186     -0.5298705227     -7.0548482653
 H     12.4582304859     -1.3197770073     -6.2168882088
 H     12.9081798126      0.4685225095     -6.9357107610
 H     12.4029900053     -1.0295501502     -7.9935266279
4
# ORCA AIMD Position Step 22, t=11.00 fs, E_Pot=-39.81996462 Hartree, Unit is Angstrom
 C     12.4274709830     -0.5284526829     -7.0486277638
 H     12.4658995614     -1.2925887171     -6.2063297909
 H     12.8951462573      0.4853382641     -6.9464310400
 H     12.4267240896     -1.0406366230     -7.9814527560
4
# ORCA AIMD Position Step 23, t=11.50 fs, E_Pot=-39.82053045 Hartree, Unit is Angstrom
 C     12.4188113019     -0.5271263880     -7.0420377203
 H     12.4732869763     -1.2616656925     -6.1975767815
 H     12.8804909444      0.4993708109     -6.9572899348
 H     12.4502101625     -1.0513971936     -7.9715182059
4
# ORCA AIMD Position Step 24, t=12.00 fs, E_Pot=-39.82102684 Hartree, Unit is Angstrom
 C     12.4103344873     -0.5257940672     -7.0351645005
 H     12.4802925163     -1.2277860598     -6.1899020788
 H     12.8639988406      0.5102109201     -6.9682491079
 H     12.4734058834     -1.0618027912     -7.9634530356
4
# ORCA AIMD Position Step 25, t=12.50 fs, E_Pot=-39.82124803 Hartree, Unit is Angstrom
 C     12.4020619002     -0.5243692853     -7.0281337079
 H     12.4868567288     -1.1919105500     -6.1823453553
 H     12.8455475223      0.5176598493     -6.9792537459
 H     12.4962326071     -1.0717191582     -7.9567687594
4
# ORCA AIMD Position Step 26, t=13.00 fs, E_Pot=-39.82108188 Hartree, Unit is Angstrom
 C     12.3940066825     -0.5227797140     -7.0210998092
 H     12.4929718028     -1.1551198306     -6.1737556864
 H     12.8251024910      0.5217379420     -6.9902438709
 H     12.5185700802     -1.0809427587     -7.9508284057
4
# ORCA AIMD Position Step 27, t=13.50 fs, E_Pot=-39.82059354 Hartree, Unit is Angstrom
 C     12.3861739829     -0.5209719292     -7.0142304575
 H     12.4986831226     -1.1185152342     -6.1628868341
 H     12.8027114448      0.5226860497     -7.0011655446
 H     12.5402578253     -1.0892445303     -7.9449271381
4
# ORCA AIMD Position Step 28, t=14.00 fs, E_Pot=-39.82001895 Hartree, Unit is Angstrom
 C     12.3785617373     -0.5189196540     -7.0076853585
 H     12.5040744577     -1.0830803658     -6.1485638014
 H     12.7784979811      0.5209658274     -7.0119813763
 H     12.5611067217     -1.0964107643     -7.9383672371
4
# ORCA AIMD Position Step 29, t=14.50 fs, E_Pot=-39.81963892 Hartree, Unit is Angstrom
 C     12.3711627238     -0.5166331847     -7.0015919859
 H     12.5092344159     -1.0495326152     -6.1299029726
 H     12.7526531142      0.5172548757     -7.0226795489
 H     12.5809163479     -1.1022748116     -7.9305184656
4
# ORCA AIMD Position Step 30, t=15.00 fs, E_Pot=-39.81959842 Hartree, Unit is Angstrom
 C     12.3639678365     -0.5141652207     -6.9960234601
 H     12.5142117496     -1.0182154801     -6.1065261835
 H     12.7254218768      0.5124293111     -7.0332802947
 H     12.5994940012     -1.1067380406     -7.9208612304
4
# ORCA AIMD Position Step 31, t=15.50 fs, E_Pot=-39.81981028 Hartree, Unit is Angstrom
 C     12.3569695860     -0.5116081312     -6.9909855921
 H     12.5189771617     -0.9890790416     -6.0786850002
 H     12.6970818776      0.5075236186     -7.0438384765
 H     12.6166727164     -1.1097816844     -7.9090140256
4
# ORCA AIMD Position Step 32, t=16.00 fs, E_Pot=-39.82003136 Hartree, Unit is Angstrom
 C     12.3501644550     -0.5090817015     -6.9864174694
 H     12.5234079720     -0.9617555228     -6.0472406730
 H     12.6679188555      0.5036648210     -7.0544409700
 H     12.6323231570     -1.1114711953     -7.8947487386
4
# ORCA AIMD Position Step 33, t=16.50 fs, E_Pot=-39.82004196 Hartree, Unit is Angstrom
 C     12.3435541818     -0.5067097474     -6.9822055219
 H     12.5273072479     -0.9357022828     -6.0134996208
 H     12.6381692431      0.5019419174     -7.0651975543
 H     12.6463767540     -1.1119608009     -7.8779960249
4
# ORCA AIMD Position Step 34, t=17.00 fs, E_Pot=-39.81977584 Hartree, Unit is Angstrom
 C     12.3371454126     -0.5045985135     -6.9782028887
 H     12.5304345348     -0.9103350620     -5.9790004860
 H     12.6079912990      0.5032772759     -7.0762255638
 H     12.6588280229     -1.1114883656     -7.8588423404
4
# ORCA AIMD Position Step 35, t=17.50 fs, E_Pot=-39.81931404 Hartree, Unit is Angstrom
 C     12.3309481396     -0.5028147945     -6.9742498049
 H     12.5325455257     -0.8851339414     -5.9452939325
 H     12.5774352546      0.5082722583     -7.0876281034
 H     12.6697433173     -1.1103752088     -7.8375288693
4
# ORCA AIMD Position Step 36, t=18.00 fs, E_Pot=-39.81878531 Hartree, Unit is Angstrom
 C     12.3249733535     -0.5013722151     -6.9701893356
 H     12.5334210725     -0.8596962983     -5.9137887153
 H     12.5464373375      0.5170901273     -7.0994714690
 H     12.6792657437     -1.1090194261     -7.8144405739
4
# ORCA AIMD Position Step 37, t=18.50 fs, E_Pot=-39.81827722 Hartree, Unit is Angstrom
 C     12.3192301091     -0.5002274319     -6.9658784580
 H     12.5328856511     -0.8337513759     -5.8856654693
 H     12.5148336928      0.5294085852     -7.1117674318
 H     12.6876177650     -1.1078793419     -7.7900781101
4
# ORCA AIMD Position Step 38, t=19.00 fs, E_Pot=-39.81782334 Hartree, Unit is Angstrom
 C     12.3137218897     -0.4992867300     -6.9611947472
 H     12.5308138460     -0.8071513046     -5.8618403647
 H     12.4824076481      0.5444646297     -7.1244656422
 H     12.6950907288     -1.1074491318     -7.7650222211
4
# ORCA AIMD Position Step 39, t=19.50 fs, E_Pot=-39.81745030 Hartree, Unit is Angstrom
 C     12.3084433967     -0.4984204290     -6.9560404423
 H     12.5271296215     -0.7798526123     -5.8429563832
 H     12.4489511369      0.5611741685     -7.1374588723
 H     12.7020222493     -1.1082256145     -7.7398890389
4
# ORCA AIMD Position Step 40, t=20.00 fs, E_Pot=-39.81722275 Hartree, Unit is Angstrom
 C     12.3033798601     -0.4974814840     -6.9503463855
 H     12.5218045412     -0.7518960426     -5.8293892186
 H     12.4143082191      0.5782835079     -7.1505985460
 H     12.7087624037     -1.1106586665     -7.7152620869
4
# ORCA AIMD Position Step 41, t=20.50 fs, E_Pot=-39.81723871 Hartree, Unit is Angstrom
 C     12.2985086197     -0.4963239930     -6.9440762127
 H     12.5148562737     -0.7233888503     -5.8212500721
 H     12.3784026577      0.5945153210     -7.1637148716
 H     12.7156285481     -1.1150947238     -7.6916198215
4
# ORCA AIMD Position Step 42, t=21.00 fs, E_Pot=-39.81757387 Hartree, Unit is Angstrom
 C     12.2938025316     -0.4948185661     -6.9372307548
 H     12.5063490393     -0.6944902841     -5.8183796005
 H     12.3412456701      0.6086820256     -7.1766363742
 H     12.7228565212     -1.1217217203     -7.6692699811
4
# ORCA AIMD Position Step 43, t=21.50 fs, E_Pot=-39.81821167 Hartree, Unit is Angstrom
 C     12.2892337070     -0.4928630780     -6.9298515346
 H     12.4963958530     -0.6653993582     -5.8203302360
 H     12.3029306729      0.6197624949     -7.1892063579
 H     12.7305594350     -1.1305297368     -7.6483092404
4
# ORCA AIMD Position Step 44, t=22.00 fs, E_Pot=-39.81900809 Hartree, Unit is Angstrom
 C     12.2847765458     -0.4903869825     -6.9220236317
 H     12.4851630420     -0.6363445381     -5.8263360304
 H     12.2636182096      0.6269275798     -7.2012906032
 H     12.7387024850     -1.1412950658     -7.6286115530
4
# ORCA AIMD Position Step 45, t=22.50 fs, E_Pot=-39.81971826 Hartree, Unit is Angstrom
 C     12.2804089995     -0.4873541729     -6.9138716922
 H     12.4728756696     -0.6075664473     -5.8353047618
 H     12.2235005723      0.6295778991     -7.2127946166
 H     12.7471181427     -1.1536010016     -7.6098663381
4
# ORCA AIMD Position Step 46, t=23.00 fs, E_Pot=-39.82009005 Hartree, Unit is Angstrom
 C     12.2761116469     -0.4837588018     -6.9055575329
 H     12.4598133772     -0.5793039859     -5.8457938740
 H     12.1828027345      0.6273264882     -7.2236612546
 H     12.7555204577     -1.1668841436     -7.5916333600
4
# ORCA AIMD Position Step 47, t=23.50 fs, E_Pot=-39.81999419 Hartree, Unit is Angstrom
 C     12.2718667339     -0.4796222135     -6.8972696524
 H     12.4463021468     -0.5517699324     -5.8560549930
 H     12.1417542678      0.6200007467     -7.2338798141
 H     12.7635525588     -1.1804973419     -7.5734138708
4
# ORCA AIMD Position Step 48, t=24.00 fs, E_Pot=-39.81953625 Hartree, Unit is Angstrom
 C     12.2676578778     -0.4749893872     -6.8892071044
 H     12.4326899738     -0.5251238517     -5.8641532718
 H     12.1005700003      0.6076383877     -7.2434928748
 H     12.7708333831     -1.1937751385     -7.5547161837
4
# ORCA AIMD Position Step 49, t=24.50 fs, E_Pot=-39.81907015 Hartree, Unit is Angstrom
 C     12.2634715732     -0.4699260232     -6.8815560468
 H     12.4193045360     -0.4994481576     -5.8681906484
 H     12.0594352985      0.5904834736     -7.2526028837
 H     12.7769963948     -1.2060884546     -7.5351048270
4
# ORCA AIMD Position Step 50, t=25.00 fs, E_Pot=-39.81904815 Hartree, Unit is Angstrom
 C     12.2593003728     -0.4645151892     -6.8744593971
 H     12.4064059866     -0.4747362299     -5.8666192083
 H     12.0184760573      0.5689835947     -7.2613812790
 H     12.7817287773     -1.2168934883     -7.5142393872
4
# ORCA AIMD Position Step 51, t=25.50 fs, E_Pot=-39.81975454 Hartree, Unit is Angstrom
 C     12.2551464788     -0.4588527731     -6.8679881005
 H     12.3941411986     -0.4509046567     -5.8585633144
 H     11.9777425312      0.5437768129     -7.2700717635
 H     12.7847908202     -1.2257603088     -7.4918915403
4
# ORCA AIMD Position Step 52, t=26.00 fs, E_Pot=-39.82110381 Hartree, Unit is Angstrom
 C     12.2510236523     -0.4530406771     -6.8621233644
 H     12.3825251986     -0.4278265828     -5.8440266698
 H     11.9371915560      0.5156644813     -7.2789878452
 H     12.7860301268     -1.2323933832     -7.4679524446
4
# ORCA AIMD Position Step 53, t=26.50 fs, E_Pot=-39.82268014 Hartree, Unit is Angstrom
 C     12.2469560764     -0.4471778526     -6.8567584362
 H     12.3714590877     -0.4053715360     -5.8238851111
 H     11.8966721571      0.4855593503     -7.2884990823
 H     12.7853923725     -1.2366473394     -7.4424329978
4
# ORCA AIMD Position Step 54, t=27.00 fs, E_Pot=-39.82399172 Hartree, Unit is Angstrom
 C     12.2429735263     -0.4413500886     -6.8517194424
 H     12.3607670344     -0.3834381922     -5.7996798118
 H     11.8559456317      0.4544010172     -7.2989990081
 H     12.7829221797     -1.2385324658     -7.4154548742
4
# ORCA AIMD Position Step 55, t=27.50 fs, E_Pot=-39.82472783 Hartree, Unit is Angstrom
 C     12.2391043423     -0.4356186565     -6.8467972707
 H     12.3502478312     -0.3619636134     -5.7732961446
 H     11.8147090870      0.4230402339     -7.3108542331
 H     12.7787713445     -1.2382254204     -7.3872428849
4
# ORCA AIMD Position Step 56, t=28.00 fs, E_Pot=-39.82484426 Hartree, Unit is Angstrom
 C     12.2353666942     -0.4300095394     -6.8417798902
 H     12.3397103051     -0.3409193910     -5.7466641975
 H     11.7726645589      0.3921075205     -7.3243337005
 H     12.7731975996     -1.2360689635     -7.3581098704
4
# ORCA AIMD Position Step 57, t=28.50 fs, E_Pot=-39.82447698 Hartree, Unit is Angstrom
 C     12.2317595911     -0.4245062191     -6.8364788551
 H     12.3289921773     -0.3202994131     -5.7215338919
 H     11.7296107505      0.3619130894     -7.3395344466
 H     12.7665609616     -1.2325681765     -7.3284395316
4
# ORCA AIMD Position Step 58, t=29.00 fs, E_Pot=-39.82380531 Hartree, Unit is Angstrom
 C     12.2282564858     -0.4190489271     -6.8307457420
 H     12.3179664379     -0.3001079903     -5.6993610139
 H     11.6855291085      0.3324040324     -7.3563249212
 H     12.7593082043     -1.2283674179     -7.2986608880
4
# ORCA AIMD Position Step 59, t=29.50 fs, E_Pot=-39.82297687 Hartree, Unit is Angstrom
 C     12.2248032975     -0.4135426367     -6.8244800436
 H     12.3065395815     -0.2803502704     -5.6812651055
 H     11.6406394844      0.3032045493     -7.3743266025
 H     12.7519431375     -1.2242061100     -7.2692145996
4
# ORCA AIMD Position Step 60, t=30.00 fs, E_Pot=-39.82211446 Hartree, Unit is Angstrom
 C     12.2213224319     -0.4078730129     -6.8176303533
 H     12.2946466740     -0.2610244995     -5.6680289818
 H     11.5954035289      0.2737247366     -7.3929428009
 H     12.7449797367     -1.2208477109     -7.2405105597
4
# ORCA AIMD Position Step 61, t=30.50 fs, E_Pot=-39.82134619 Hartree, Unit is Angstrom
 C     12.2177224530     -0.4019267009     -6.8101915557
 H     12.2822464190     -0.2421143106     -5.6601129064
 H     11.5504744035      0.2432979283     -7.4114256409
 H     12.7388805641     -1.2189840427     -7.2128804057
4
# ORCA AIMD Position Step 62, t=31.00 fs, E_Pot=-39.82079534 Hartree, Unit is Angstrom
 C     12.2139101833     -0.3956109741     -6.8022002914
 H     12.2693160172     -0.2235814842     -5.6576682734
 H     11.5066207580      0.2113058033     -7.4289590790
 H     12.7339928391     -1.2191318888     -7.1865350617
4
# ORCA AIMD Position Step 63, t=31.50 fs, E_Pot=-39.82052250 Hartree, Unit is Angstrom
 C     12.2098026870     -0.3888691947     -6.7937308421
 H     12.2558481658     -0.2053556907     -5.6605383749
 H     11.4646411831      0.1772628547     -7.4447356350
 H     12.7304951197     -1.2215413806     -7.1615362516
4
# ORCA AIMD Position Step 64, t=32.00 fs, E_Pot=-39.82046698 Hartree, Unit is Angstrom
 C     12.2053355894     -0.3816894912     -6.7848915561
 H     12.2418483748     -0.1873224043     -5.6682467223
 H     11.4252939919      0.1408575446     -7.4580145396
 H     12.7283728411     -1.2261455115     -7.1377924938
4
# ORCA AIMD Position Step 65, t=32.50 fs, E_Pot=-39.82043905 Hartree, Unit is Angstrom
 C     12.2004664689     -0.3741061301     -6.7758216585
 H     12.2273322894     -0.1693085541     -5.6799763430
 H     11.3892477536      0.1019589583     -7.4681589906
 H     12.7274303782     -1.2325660800     -7.1150805998
4
# ORCA AIMD Position Step 66, t=33.00 fs, E_Pot=-39.82018385 Hartree, Unit is Angstrom
 C     12.1951737400     -0.3661948282     -6.7666875291
 H     12.2123216317     -0.1510678138     -5.6945509119
 H     11.3570520126      0.0606062575     -7.4746591186
 H     12.7273365933     -1.2401751857     -7.0930861551
4
# ORCA AIMD Position Step 67, t=33.50 fs, E_Pot=-39.81950237 Hartree, Unit is Angstrom
 C     12.1894533076     -0.3580638442     -6.7576776573
 H     12.1968395142     -0.1322670213     -5.7104469390
 H     11.3291207424      0.0169777100     -7.4771352583
 H     12.7276845775     -1.2481845424     -7.0714481374
4
# ORCA AIMD Position Step 68, t=34.00 fs, E_Pot=-39.81838615 Hartree, Unit is Angstrom
 C     12.1833146013     -0.3498434398     -6.7489934495
 H     12.1809041051     -0.1124825977     -5.7258535722
 H     11.3057192809     -0.0286338169     -7.4753453898
 H     12.7280575495     -1.2557495918     -7.0498009898
4
# ORCA AIMD Position Step 69, t=34.50 fs, E_Pot=-39.81710103 Hartree, Unit is Angstrom
 C     12.1767773001     -0.3416748201     -6.7408322912
 H     12.1645199915     -0.0912221441     -5.7388381663
 H     11.2869603626     -0.0758426007     -7.4691907830
 H     12.7280809586     -1.2620569108     -7.0278050908
4
# ORCA AIMD Position Step 70, t=35.00 fs, E_Pot=-39.81613335 Hartree, Unit is Angstrom
 C     12.1698696413     -0.3336979251     -6.7333633102
 H     12.1476771100     -0.0679761396     -5.7476115092
 H     11.2727893481     -0.1241974855     -7.4587209533
 H     12.7274599690     -1.2663896398     -7.0051654911
4
# ORCA AIMD Position Step 71, t=35.50 fs, E_Pot=-39.81595550 Hartree, Unit is Angstrom
 C     12.1626273712     -0.3260382951     -6.7266974648
 H     12.1303584057     -0.0423075401     -5.7508672139
 H     11.2629679488     -0.1732064484     -7.4441416530
 H     12.7260021808     -1.2681694741     -6.9816414074
4
# ORCA AIMD Position Step 72, t=36.00 fs, E_Pot=-39.81671133 Hartree, Unit is Angstrom
 C     12.1550928504     -0.3187939003     -6.7208611902
 H     12.1125584531     -0.0139594089     -5.7480855814
 H     11.2570551216     -0.2223629540     -7.4258226568
 H     12.7236296413     -1.2669798967     -6.9570490970
4
# ORCA AIMD Position Step 73, t=36.50 fs, E_Pot=-39.81805614 Hartree, Unit is Angstrom
 C     12.1473139771     -0.3120247156     -6.7157848533
 H     12.0943055718      0.0170575318     -5.7396701423
 H     11.2543930459     -0.2711737058     -7.4043010090
 H     12.7203834166     -1.2625757456     -6.9312597216
4
# ORCA AIMD Position Step 74, t=37.00 fs, E_Pot=-39.81930671 Hartree, Unit is Angstrom
 C     12.1393439726     -0.3057471975     -6.7113115541
 H     12.0756774717      0.0504406220     -5.7268449309
 H     11.2540896007     -0.3191944625     -7.3802810150
 H     12.7164270558     -1.2548897375     -6.9041966978
4
# ORCA AIMD Position Step 75, t=37.50 fs, E_Pot=-39.81980055 Hartree, Unit is Angstrom
 C     12.1312378315     -0.2999359625     -6.7072281732
 H     12.0568031531      0.0856516339     -5.7113525260
 H     11.2550587189     -0.3660761110     -7.3545741162
 H     12.7120454326     -1.2440235317     -6.8758270299
4
# ORCA AIMD Position Step 76, t=38.00 fs, E_Pot=-39.81920645 Hartree, Unit is Angstrom
 C     12.1230505880     -0.2945295322     -6.7032959397
 H     12.0378431559      0.1219989652     -5.6951278156
 H     11.2560667660     -0.4115849323     -7.3280680482
 H     12.7076382946     -1.2302417385     -6.8461539815
4
# ORCA AIMD Position Step 77, t=38.50 fs, E_Pot=-39.81763158 Hartree, Unit is Angstrom
 C     12.1148299488     -0.2894391415     -6.6992837999
 H     12.0189688855      0.1587423278     -5.6800112270
 H     11.2558521551     -0.4556204983     -7.3016272763
 H     12.7037097947     -1.2139537608     -6.8152068858
4
# ORCA AIMD Position Step 78, t=39.00 fs, E_Pot=-39.81552077 Hartree, Unit is Angstrom
 C     12.1066062964     -0.2845592434     -6.6949929546
 H     12.0003429904      0.1951728652     -5.6675787957
 H     11.2532862637     -0.4981992340     -7.2759825672
 H     12.7008474140     -1.1956843715     -6.7830305838
4
# ORCA AIMD Position Step 79, t=39.50 fs, E_Pot=-39.81344101 Hartree, Unit is Angstrom
 C     12.0983819507     -0.2797800054     -6.6902724199
 H     11.9821072401      0.2306649723     -5.6590758698
 H     11.2475488439     -0.5394041692     -7.2516214843
 H     12.6996868936     -1.1760256831     -6.7496759923
4
# ORCA AIMD Position Step 80, t=40.00 fs, E_Pot=-39.81186594 Hartree, Unit is Angstrom
 C     12.0901247581     -0.2750015656     -6.6850256054
 H     11.9643725951      0.2647018401     -5.6554035519
 H     11.2382683827     -0.5793021531     -7.2287309006
 H     12.7008572765     -1.1555746382     -6.7151914210
4
# ORCA AIMD Position Step 81, t=40.50 fs, E_Pot=-39.81105171 Hartree, Unit is Angstrom
 C     12.0817697420     -0.2701480924     -6.6792080913
 H     11.9472168109      0.2968881438     -5.6571478074
 H     11.2255728704     -0.6178714144     -7.2071935037
 H     12.7049115968     -1.1348503857     -6.6796217070
4
# ORCA AIMD Position Step 82, t=41.00 fs, E_Pot=-39.81102757 Hartree, Unit is Angstrom
 C     12.0732300679     -0.2651787290     -6.6728187402
 H     11.9306812140      0.3269538621     -5.6646100071
 H     11.2100395513     -0.6549566383     -7.1866562574
 H     12.7122490842     -1.1142133841     -6.6430141650
4
# ORCA AIMD Position Step 83, t=41.50 fs, E_Pot=-39.81165354 Hartree, Unit is Angstrom
 C     12.0644141675     -0.2600943797     -6.6658881640
 H     11.9147695538      0.3547648615     -5.6778363118
 H     11.1925652471     -0.6902747813     -7.1666218563
 H     12.7230422897     -1.0937906533     -6.6054356071
4
# ORCA AIMD Position Step 84, t=42.00 fs, E_Pot=-39.81268765 Hartree, Unit is Angstrom
 C     12.0552434649     -0.2549376274     -6.6584671542
 H     11.8994433203      0.3803337478     -5.6966299655
 H     11.1742085750     -0.7234536465     -7.1465551226
 H     12.7371893483     -1.0734503252     -6.5669931491
4
# ORCA AIMD Position Step 85, t=42.50 fs, E_Pot=-39.81383827 Hartree, Unit is Angstrom
 C     12.0456655124     -0.2497880109     -6.6506180910
 H     11.8846180047      0.4038389621     -5.7205607792
 H     11.1560479402     -0.7540878514     -7.1259574906
 H     12.7543044838     -1.0528215101     -6.5278545298
4
# ORCA AIMD Position Step 86, t=43.00 fs, E_Pot=-39.81481144 Hartree, Unit is Angstrom
 C     12.0356605010     -0.2447544110     -6.6424109715
 H     11.8701551629      0.4256504599     -5.7489534526
 H     11.1390821168     -0.7817852562     -7.1044197469
 H     12.7737491846     -1.0313635501     -6.4882556447
4
# ORCA AIMD Position Step 87, t=43.50 fs, E_Pot=-39.81536835 Hartree, Unit is Angstrom
 C     12.0252416261     -0.2399663223     -6.6339214475
 H     11.8558588404      0.4463583319     -5.7808976045
 H     11.1241661995     -0.8062087483     -7.0816381057
 H     12.7946965395     -1.0084555509     -6.4484982055
4
# ORCA AIMD Position Step 88, t=44.00 fs, E_Pot=-39.81539656 Hartree, Unit is Angstrom
 C     12.0144512368     -0.2355649771     -6.6252294237
 H     11.8414738132      0.4667878473     -5.8152751386
 H     11.1119785930     -0.8271032157     -7.0574204794
 H     12.8162119844     -0.9834896090     -6.4089328223
4
# ORCA AIMD Position Step 89, t=44.50 fs, E_Pot=-39.81498331 Hartree, Unit is Angstrom
 C     12.0033544515     -0.2316950417     -6.6164152774
 H     11.8266946079      0.4879873134     -5.8508397792
 H     11.1030099583     -0.8443137647     -7.0316738040
 H     12.8373303500     -0.9559398472     -6.3699370542
4
# ORCA AIMD Position Step 90, t=45.00 fs, E_Pot=-39.81444598 Hartree, Unit is Angstrom
 C     11.9920322476     -0.2284927316     -6.6075512345
 H     11.8111882204      0.5111545618     -5.8863514495
 H     11.0975529831     -0.8578049977     -7.0043981928
 H     12.8571239987     -0.9254119668     -6.3318889007
4
# ORCA AIMD Position Step 91, t=45.50 fs, E_Pot=-39.81425362 Hartree, Unit is Angstrom
 C     11.9805743855     -0.2260689356     -6.5986868744
 H     11.7946357334      0.5374659391     -5.9207727537
 H     11.0956977316     -0.8676736229     -6.9756835518
 H     12.8747489819     -0.8916612893     -6.2951452835
4
# ORCA AIMD Position Step 92, t=46.00 fs, E_Pot=-39.81480521 Hartree, Unit is Angstrom
 C     11.9690730483     -0.2244871487     -6.5898337431
 H     11.7767906372      0.5678385089     -5.9534725710
 H     11.0973173750     -0.8741714322     -6.9457043974
 H     12.8894769907     -0.8545954537     -6.2600263404
4
# ORCA AIMD Position Step 93, t=46.50 fs, E_Pot=-39.81615780 Hartree, Unit is Angstrom
 C     11.9576178005     -0.2237403135     -6.5809550786
 H     11.7575383903      0.6026742685     -5.9843649879
 H     11.1020487137     -0.8777320408     -6.9147140124
 H     12.9007165105     -0.8142681804     -6.2268047481
4
# ORCA AIMD Position Step 94, t=47.00 fs, E_Pot=-39.81790924 Hartree, Unit is Angstrom
 C     11.9462936837     -0.2237357142     -6.5719677170
 H     11.7369291639      0.6416923119     -6.0138984284