Job execution start: Mon Oct 24 16:40:30 CEST 2022
Shared library path: /home/cs681498/orca:/opt/MPI/openmpi-4.1.1/linux/gcc_4.8.5/lib:/opt/MPI/openmpi-4.1.1/linux/gcc_4.8.5/lib/lib32
Slurm Job ID is: 30556111
Slurm Job name is: 1226
ncm0166

                                 *****************
                                 * O   R   C   A *
                                 *****************

                                            #,                                       
                                            ###                                      
                                            ####                                     
                                            #####                                    
                                            ######                                   
                                           ########,                                 
                                     ,,################,,,,,                         
                               ,,#################################,,                 
                          ,,##########################################,,             
                       ,#########################################, ''#####,          
                    ,#############################################,,   '####,        
                  ,##################################################,,,,####,       
                ,###########''''           ''''###############################       
              ,#####''   ,,,,##########,,,,          '''####'''          '####       
            ,##' ,,,,###########################,,,                        '##       
           ' ,,###''''                  '''############,,,                           
         ,,##''                                '''############,,,,        ,,,,,,###''
      ,#''                                            '''#######################'''  
     '                                                          ''''####''''         
             ,#######,   #######,   ,#######,      ##                                
            ,#'     '#,  ##    ##  ,#'     '#,    #''#        ######   ,####,        
            ##       ##  ##   ,#'  ##            #'  '#       #        #'  '#        
            ##       ##  #######   ##           ,######,      #####,   #    #        
            '#,     ,#'  ##    ##  '#,     ,#' ,#      #,         ##   #,  ,#        
             '#######'   ##     ##  '#######'  #'      '#     #####' # '####'        



                  #######################################################
                  #                        -***-                        #
                  #          Department of theory and spectroscopy      #
                  #    Directorship and core code : Frank Neese         #
                  #        Max Planck Institute fuer Kohlenforschung    #
                  #                Kaiser Wilhelm Platz 1               #
                  #                 D-45470 Muelheim/Ruhr               #
                  #                      Germany                        #
                  #                                                     #
                  #                  All rights reserved                #
                  #                        -***-                        #
                  #######################################################


                         Program Version 5.0.3 -  RELEASE  -


 With contributions from (in alphabetic order):
   Daniel Aravena         : Magnetic Suceptibility
   Michael Atanasov       : Ab Initio Ligand Field Theory (pilot matlab implementation)
   Alexander A. Auer      : GIAO ZORA, VPT2 properties, NMR spectrum
   Ute Becker             : Parallelization
   Giovanni Bistoni       : ED, misc. LED, open-shell LED, HFLD
   Martin Brehm           : Molecular dynamics
   Dmytro Bykov           : SCF Hessian
   Vijay G. Chilkuri      : MRCI spin determinant printing, contributions to CSF-ICE
   Dipayan Datta          : RHF DLPNO-CCSD density
   Achintya Kumar Dutta   : EOM-CC, STEOM-CC
   Dmitry Ganyushin       : Spin-Orbit,Spin-Spin,Magnetic field MRCI
   Miquel Garcia          : C-PCM and meta-GGA Hessian, CC/C-PCM, Gaussian charge scheme
   Yang Guo               : DLPNO-NEVPT2, F12-NEVPT2, CIM, IAO-localization
   Andreas Hansen         : Spin unrestricted coupled pair/coupled cluster methods
   Benjamin Helmich-Paris : MC-RPA, TRAH-SCF, COSX integrals
   Lee Huntington         : MR-EOM, pCC
   Robert Izsak           : Overlap fitted RIJCOSX, COSX-SCS-MP3, EOM
   Marcus Kettner         : VPT2
   Christian Kollmar      : KDIIS, OOCD, Brueckner-CCSD(T), CCSD density, CASPT2, CASPT2-K
   Simone Kossmann        : Meta GGA functionals, TD-DFT gradient, OOMP2, MP2 Hessian
   Martin Krupicka        : Initial AUTO-CI
   Lucas Lang             : DCDCAS
   Marvin Lechner         : AUTO-CI (C++ implementation), FIC-MRCC
   Dagmar Lenk            : GEPOL surface, SMD
   Dimitrios Liakos       : Extrapolation schemes; Compound Job, initial MDCI parallelization
   Dimitrios Manganas     : Further ROCIS development; embedding schemes
   Dimitrios Pantazis     : SARC Basis sets
   Anastasios Papadopoulos: AUTO-CI, single reference methods and gradients
   Taras Petrenko         : DFT Hessian,TD-DFT gradient, ASA, ECA, R-Raman, ABS, FL, XAS/XES, NRVS
   Peter Pinski           : DLPNO-MP2, DLPNO-MP2 Gradient
   Christoph Reimann      : Effective Core Potentials
   Marius Retegan         : Local ZFS, SOC
   Christoph Riplinger    : Optimizer, TS searches, QM/MM, DLPNO-CCSD(T), (RO)-DLPNO pert. Triples
   Tobias Risthaus        : Range-separated hybrids, TD-DFT gradient, RPA, STAB
   Michael Roemelt        : Original ROCIS implementation
   Masaaki Saitow         : Open-shell DLPNO-CCSD energy and density
   Barbara Sandhoefer     : DKH picture change effects
   Avijit Sen             : IP-ROCIS
   Kantharuban Sivalingam : CASSCF convergence, NEVPT2, FIC-MRCI
   Bernardo de Souza      : ESD, SOC TD-DFT
   Georgi Stoychev        : AutoAux, RI-MP2 NMR, DLPNO-MP2 response
   Willem Van den Heuvel  : Paramagnetic NMR
   Boris Wezisla          : Elementary symmetry handling
   Frank Wennmohs         : Technical directorship


 We gratefully acknowledge several colleagues who have allowed us to
 interface, adapt or use parts of their codes:
   Stefan Grimme, W. Hujo, H. Kruse, P. Pracht,  : VdW corrections, initial TS optimization,
                  C. Bannwarth, S. Ehlert          DFT functionals, gCP, sTDA/sTD-DF
   Ed Valeev, F. Pavosevic, A. Kumar             : LibInt (2-el integral package), F12 methods
   Garnet Chan, S. Sharma, J. Yang, R. Olivares  : DMRG
   Ulf Ekstrom                                   : XCFun DFT Library
   Mihaly Kallay                                 : mrcc  (arbitrary order and MRCC methods)
   Jiri Pittner, Ondrej Demel                    : Mk-CCSD
   Frank Weinhold                                : gennbo (NPA and NBO analysis)
   Christopher J. Cramer and Donald G. Truhlar   : smd solvation model
   Lars Goerigk                                  : TD-DFT with DH, B97 family of functionals
   V. Asgeirsson, H. Jonsson                     : NEB implementation
   FAccTs GmbH                                   : IRC, NEB, NEB-TS, DLPNO-Multilevel, CI-OPT
                                                   MM, QMMM, 2- and 3-layer-ONIOM, Crystal-QMMM,
                                                   LR-CPCM, SF, NACMEs, symmetry and pop. for TD-DFT,
                                                   nearIR, NL-DFT gradient (VV10), updates on ESD,
                                                   ML-optimized integration grids
   S Lehtola, MJT Oliveira, MAL Marques          : LibXC Library
   Liviu Ungur et al                             : ANISO software


 Your calculation uses the libint2 library for the computation of 2-el integrals
 For citations please refer to: http://libint.valeyev.net

 Your ORCA version has been built with support for libXC version: 5.1.0
 For citations please refer to: https://tddft.org/programs/libxc/

 This ORCA versions uses:
   CBLAS   interface :  Fast vector & matrix operations
   LAPACKE interface :  Fast linear algebra routines
   SCALAPACK package :  Parallel linear algebra routines
   Shared memory     :  Shared parallel matrices
   BLAS/LAPACK       :  OpenBLAS 0.3.15  USE64BITINT DYNAMIC_ARCH NO_AFFINITY SkylakeX SINGLE_THREADED
        Core in use  :  SkylakeX
   Copyright (c) 2011-2014, The OpenBLAS Project


================================================================================

----- Orbital basis set information -----
Your calculation utilizes the basis: EPR-III
   V. Barone, in Recent Advances in Density Functional Methods, Part 1 (ed. D. P. Chong), World Scientific, Singapore, 1995, p. 287.
   N. Rega, M. Cossi and V. Barone, J. Chem. Phys. 105, 11060 (1996).

----- AuxJ basis set information -----
Your calculation utilizes the AutoAux generation procedure.
  G. L. Stoychev, A. A. Auer, F. Neese, J. Chem. Theory Comput. 13, 554 (2017)

----- AuxC basis set information -----
Your calculation utilizes the AutoAux generation procedure.
  G. L. Stoychev, A. A. Auer, F. Neese, J. Chem. Theory Comput. 13, 554 (2017)

----- AuxJK basis set information -----
Your calculation utilizes the AutoAux generation procedure.
  G. L. Stoychev, A. A. Auer, F. Neese, J. Chem. Theory Comput. 13, 554 (2017)

================================================================================
                                        WARNINGS
                       Please study these warnings very carefully!
================================================================================


WARNING: your system is open-shell and RHF/RKS was chosen
  ===> : WILL SWITCH to UHF/UKS


INFO   : the flag for use of the SHARK integral package has been found!

================================================================================
                                       INPUT FILE
================================================================================
NAME = /home/rwth0701/scratch/cs681498/orcajob__30556111-NJz0/1226.inp
|  1> !B3LYP EPR-III Autoaux
|  2> !PAL4
|  3> 
|  4> * xyz 0 2
|  5>  C      8.7309899515     -4.9722702230     -8.1233550283
|  6>  H      7.9943258720     -5.7721258371     -8.2164909472
|  7>  H      9.2820343278     -4.7585791804     -8.9828992480
|  8>  H      8.8840059774     -4.4207003897     -7.2303764764
|  9> *
| 10> 
| 11> %EPRNMR
| 12>         GTENSOR   TRUE
| 13>         NUCLEI    = ALL H {AISO, ADIP, AORB}
| 14>         NUCLEI    = ALL C {AISO, ADIP, AORB}
| 15> END
| 16> 
| 17> 
| 18>                          ****END OF INPUT****
================================================================================

                       ****************************
                       * Single Point Calculation *
                       ****************************

---------------------------------
CARTESIAN COORDINATES (ANGSTROEM)
---------------------------------
  C      8.730990   -4.972270   -8.123355
  H      7.994326   -5.772126   -8.216491
  H      9.282034   -4.758579   -8.982899
  H      8.884006   -4.420700   -7.230376

----------------------------
CARTESIAN COORDINATES (A.U.)
----------------------------
  NO LB      ZA    FRAG     MASS         X           Y           Z
   0 C     6.0000    0    12.011   16.499180   -9.396229  -15.350916
   1 H     1.0000    0     1.008   15.107087  -10.907737  -15.526918
   2 H     1.0000    0     1.008   17.540503   -8.992411  -16.975219
   3 H     1.0000    0     1.008   16.788338   -8.353913  -13.663431

--------------------------------
INTERNAL COORDINATES (ANGSTROEM)
--------------------------------
 C      0   0   0     0.000000000000     0.00000000     0.00000000
 H      1   0   0     1.091383190645     0.00000000     0.00000000
 H      1   2   0     1.043134714195   115.87319933     0.00000000
 H      1   2   3     1.060685570441   123.38942302   178.97050979

---------------------------
INTERNAL COORDINATES (A.U.)
---------------------------
 C      0   0   0     0.000000000000     0.00000000     0.00000000
 H      1   0   0     2.062415337484     0.00000000     0.00000000
 H      1   2   0     1.971238930615   115.87319933     0.00000000
 H      1   2   3     2.004405242336   123.38942302   178.97050979

---------------------
BASIS SET INFORMATION
---------------------
There are 2 groups of distinct atoms

 Group   1 Type C   : 12s8p2d1f contracted to 8s5p2d1f pattern {51111111/41111/11/1}
 Group   2 Type H   : 7s2p contracted to 5s2p pattern {31111/11}

Atom   0C    basis set group =>   1
Atom   1H    basis set group =>   2
Atom   2H    basis set group =>   2
Atom   3H    basis set group =>   2
---------------------------------
AUXILIARY/J BASIS SET INFORMATION
---------------------------------
There are 2 groups of distinct atoms

 Group   1 Type C   : 20s17p16d8f3g contracted to 20s17p16d8f3g pattern {11111111111111111111/11111111111111111/1111111111111111/11111111/111}
 Group   2 Type H   : 17s7p3d contracted to 17s7p3d pattern {11111111111111111/1111111/111}

Atom   0C    basis set group =>   1
Atom   1H    basis set group =>   2
Atom   2H    basis set group =>   2
Atom   3H    basis set group =>   2
---------------------------------
AUXILIARY/C BASIS SET INFORMATION
---------------------------------
There are 2 groups of distinct atoms

 Group   1 Type C   : 20s17p16d8f3g contracted to 20s17p16d8f3g pattern {11111111111111111111/11111111111111111/1111111111111111/11111111/111}
 Group   2 Type H   : 17s7p3d contracted to 17s7p3d pattern {11111111111111111/1111111/111}

Atom   0C    basis set group =>   1
Atom   1H    basis set group =>   2
Atom   2H    basis set group =>   2
Atom   3H    basis set group =>   2
----------------------------------
AUXILIARY/JK BASIS SET INFORMATION
----------------------------------
There are 2 groups of distinct atoms

 Group   1 Type C   : 20s17p16d8f3g contracted to 20s17p16d8f3g pattern {11111111111111111111/11111111111111111/1111111111111111/11111111/111}
 Group   2 Type H   : 17s7p3d contracted to 17s7p3d pattern {11111111111111111/1111111/111}

Atom   0C    basis set group =>   1
Atom   1H    basis set group =>   2
Atom   2H    basis set group =>   2
Atom   3H    basis set group =>   2


           ************************************************************
           *        Program running with 4 parallel MPI-processes     *
           *              working on a common directory               *
           ************************************************************
------------------------------------------------------------------------------
                           ORCA GTO INTEGRAL CALCULATION
                           -- RI-GTO INTEGRALS CHOSEN --
------------------------------------------------------------------------------
------------------------------------------------------------------------------
                   ___                                                        
                  /   \      - P O W E R E D   B Y -                         
                 /     \                                                     
                 |  |  |   _    _      __       _____    __    __             
                 |  |  |  | |  | |    /  \     |  _  \  |  |  /  |          
                  \  \/   | |  | |   /    \    | | | |  |  | /  /          
                 / \  \   | |__| |  /  /\  \   | |_| |  |  |/  /          
                |  |  |   |  __  | /  /__\  \  |    /   |      \           
                |  |  |   | |  | | |   __   |  |    \   |  |\   \          
                \     /   | |  | | |  |  |  |  | |\  \  |  | \   \       
                 \___/    |_|  |_| |__|  |__|  |_| \__\ |__|  \__/        
                                                                              
                      - O R C A' S   B I G   F R I E N D -                    
                                      &                                       
                       - I N T E G R A L  F E E D E R -                       
                                                                              
 v1 FN, 2020, v2 2021                                                         
------------------------------------------------------------------------------


Reading SHARK input file /home/rwth0701/scratch/cs681498/orcajob__30556111-NJz0/1226.SHARKINP.tmp ... ok
----------------------
SHARK INTEGRAL PACKAGE
----------------------

Number of atoms                             ...      4
Number of basis functions                   ...     73
Number of shells                            ...     37
Maximum angular momentum                    ...      3
Integral batch strategy                     ... SHARK/LIBINT Hybrid
RI-J (if used) integral strategy            ... SPLIT-RIJ (Revised 2003 algorithm where possible)
Printlevel                                  ...      1
Contraction scheme used                     ... SEGMENTED contraction
Coulomb Range Separation                    ... NOT USED
Exchange Range Separation                   ... NOT USED
Finite Nucleus Model                        ... NOT USED
Auxiliary Coulomb fitting basis             ... AVAILABLE
   # of basis functions in Aux-J            ...    393
   # of shells in Aux-J                     ...    145
   Maximum angular momentum in Aux-J        ...      4
Auxiliary J/K fitting basis                 ... AVAILABLE
   # of basis functions in Aux-JK           ...    393
   # of shells in Aux-JK                    ...    145
   Maximum angular momentum in Aux-JK       ...      4
Auxiliary Correlation fitting basis         ... AVAILABLE
   # of basis functions in Aux-C            ...    393
   # of shells in Aux-C                     ...    145
   Maximum angular momentum in Aux-C        ...      4
Auxiliary 'external' fitting basis          ... NOT available
Integral threshold                          ...     1.000000e-10
Primitive cut-off                           ...     1.000000e-11
Primitive pair pre-selection threshold      ...     1.000000e-11

Calculating pre-screening integrals         ... done (  0.0 sec) Dimension = 37
Organizing shell pair data                  ... done (  0.0 sec)
Shell pair information
Total number of shell pairs                 ...       703
Shell pairs after pre-screening             ...       688
Total number of primitive shell pairs       ...      1300
Primitive shell pairs kept                  ...      1183
          la=0 lb=0:    261 shell pairs
          la=1 lb=0:    253 shell pairs
          la=1 lb=1:     66 shell pairs
          la=2 lb=0:     46 shell pairs
          la=2 lb=1:     22 shell pairs
          la=2 lb=2:      3 shell pairs
          la=3 lb=0:     23 shell pairs
          la=3 lb=1:     11 shell pairs
          la=3 lb=2:      2 shell pairs
          la=3 lb=3:      1 shell pairs

Calculating one electron integrals          ... done (  0.0 sec)
Calculating RI/J V-Matrix + Cholesky decomp.... done (  0.1 sec)
Calculating RI/JK V-Matrix + Cholesky decomp... done (  0.1 sec)
Calculating RI/C V-Matrix + Cholesky decomp.... done (  0.1 sec)
Calculating Nuclear repulsion               ... done (  0.0 sec) ENN=      9.807556365375 Eh

SHARK setup successfully completed in   0.7 seconds

Maximum memory used throughout the entire GTOINT-calculation: 13.7 MB


           ************************************************************
           *        Program running with 4 parallel MPI-processes     *
           *              working on a common directory               *
           ************************************************************
-------------------------------------------------------------------------------
                                 ORCA SCF
-------------------------------------------------------------------------------

------------
SCF SETTINGS
------------
Hamiltonian:
 Density Functional     Method          .... DFT(GTOs)
 Exchange Functional    Exchange        .... B88
   X-Alpha parameter    XAlpha          ....  0.666667
   Becke's b parameter  XBeta           ....  0.004200
 Correlation Functional Correlation     .... LYP
 LDA part of GGA corr.  LDAOpt          .... VWN-5
 Gradients option       PostSCFGGA      .... off
 Hybrid DFT is turned on
   Fraction HF Exchange ScalHFX         ....  0.200000
   Scaling of DF-GGA-X  ScalDFX         ....  0.720000
   Scaling of DF-GGA-C  ScalDFC         ....  0.810000
   Scaling of DF-LDA-C  ScalLDAC        ....  1.000000
   Perturbative correction              ....  0.000000
   Density functional embedding theory  .... OFF
   NL short-range parameter             ....  4.800000
 RI-approximation to the Coulomb term is turned on
   Number of AuxJ basis functions       .... 393
   RIJ-COSX (HFX calculated with COS-X)).... on


General Settings:
 Integral files         IntName         .... /home/rwth0701/scratch/cs681498/orcajob__30556111-NJz0/1226
 Hartree-Fock type      HFTyp           .... UHF
 Total Charge           Charge          ....    0
 Multiplicity           Mult            ....    2
 Number of Electrons    NEL             ....    9
 Basis Dimension        Dim             ....   73
 Nuclear Repulsion      ENuc            ....      9.8075563654 Eh

Convergence Acceleration:
 DIIS                   CNVDIIS         .... on
   Start iteration      DIISMaxIt       ....    12
   Startup error        DIISStart       ....  0.200000
   # of expansion vecs  DIISMaxEq       ....     5
   Bias factor          DIISBfac        ....   1.050
   Max. coefficient     DIISMaxC        ....  10.000
 Trust-Rad. Augm. Hess. CNVTRAH         .... auto
   Auto Start mean grad. ratio tolernc. ....  1.125000
   Auto Start start iteration           ....    20
   Auto Start num. interpolation iter.  ....    10
   Max. Number of Micro iterations      ....    16
   Max. Number of Macro iterations      .... Maxiter - #DIIS iter
   Number of Davidson start vectors     ....     2
   Converg. threshold I  (grad. norm)   ....   5.000e-05
   Converg. threshold II (energy diff.) ....   1.000e-06
   Grad. Scal. Fac. for Micro threshold ....   0.100
   Minimum threshold for Micro iter.    ....   0.010
   NR start threshold (gradient norm)   ....   0.001
   Initial trust radius                 ....   0.400
   Minimum AH scaling param. (alpha)    ....   1.000
   Maximum AH scaling param. (alpha)    .... 1000.000
   Orbital update algorithm             .... Taylor
   White noise on init. David. guess    .... on
   Maximum white noise                  ....   0.010
   Quad. conv. algorithm                .... NR
 SOSCF                  CNVSOSCF        .... off
 Level Shifting         CNVShift        .... on
   Level shift para.    LevelShift      ....    0.2500
   Turn off err/grad.   ShiftErr        ....    0.0010
 Zerner damping         CNVZerner       .... off
 Static damping         CNVDamp         .... on
   Fraction old density DampFac         ....    0.7000
   Max. Damping (<1)    DampMax         ....    0.9800
   Min. Damping (>=0)   DampMin         ....    0.0000
   Turn off err/grad.   DampErr         ....    0.1000
 Fernandez-Rico         CNVRico         .... off

SCF Procedure:
 Maximum # iterations   MaxIter         ....   125
 SCF integral mode      SCFMode         .... Direct
   Integral package                     .... SHARK and LIBINT hybrid scheme
 Reset frequency        DirectResetFreq ....    20
 Integral Threshold     Thresh          ....  1.000e-10 Eh
 Primitive CutOff       TCut            ....  1.000e-11 Eh

Convergence Tolerance:
 Convergence Check Mode ConvCheckMode   .... Total+1el-Energy
 Convergence forced     ConvForced      .... 0
 Energy Change          TolE            ....  1.000e-06 Eh
 1-El. energy change                    ....  1.000e-03 Eh
 DIIS Error             TolErr          ....  1.000e-06


Diagonalization of the overlap matrix:
Smallest eigenvalue                        ... 1.521e-03
Time for diagonalization                   ...    0.002 sec
Threshold for overlap eigenvalues          ... 1.000e-08
Number of eigenvalues below threshold      ... 0
Time for construction of square roots      ...    0.019 sec
Total time needed                          ...    0.021 sec

Time for model grid setup =    0.048 sec

------------------------------
INITIAL GUESS: MODEL POTENTIAL
------------------------------
Loading Hartree-Fock densities                     ... done
Calculating cut-offs                               ... done
Initializing the effective Hamiltonian             ... done
Setting up the integral package (SHARK)            ... done
Starting the Coulomb interaction                   ... done (   0.1 sec)
Reading the grid                                   ... done
Mapping shells                                     ... done
Starting the XC term evaluation                    ... done (   0.0 sec)
  promolecular density results
     # of electrons  =      8.998675214
     EX              =     -5.977746904
     EC              =     -0.260866874
     EX+EC           =     -6.238613778
Transforming the Hamiltonian                       ... done (   0.0 sec)
Diagonalizing the Hamiltonian                      ... done (   0.0 sec)
Back transforming the eigenvectors                 ... done (   0.0 sec)
Now organizing SCF variables                       ... done
                      ------------------
                      INITIAL GUESS DONE (   0.1 sec)
                      ------------------
-------------------
DFT GRID GENERATION
-------------------

General Integration Accuracy     IntAcc      ... 4.388
Radial Grid Type                 RadialGrid  ... OptM3 with GC (2021)
Angular Grid (max. ang.)         AngularGrid ... 4 (Lebedev-302)
Angular grid pruning method      GridPruning ... 4 (adaptive)
Weight generation scheme         WeightScheme... Becke
Basis function cutoff            BFCut       ... 1.0000e-10
Integration weight cutoff        WCut        ... 1.0000e-14
Angular grids for H and He will be reduced by one unit
Partially contracted basis set               ... off
Rotationally invariant grid construction     ... off

Total number of grid points                  ...    17053
Total number of batches                      ...      269
Average number of points per batch           ...       63
Average number of grid points per atom       ...     4263
Time for grid setup =    0.142 sec

--------------------
COSX GRID GENERATION
--------------------

GRIDX 1
-------
General Integration Accuracy     IntAcc      ... 3.816
Radial Grid Type                 RadialGrid  ... OptM3 with GC (2021)
Angular Grid (max. ang.)         AngularGrid ... 1 (Lebedev-50)
Angular grid pruning method      GridPruning ... 4 (adaptive)
Weight generation scheme         WeightScheme... Becke
Basis function cutoff            BFCut       ... 1.0000e-10
Integration weight cutoff        WCut        ... 1.0000e-14
Angular grids for H and He will be reduced by one unit
Partially contracted basis set               ... on
Rotationally invariant grid construction     ... off

Total number of grid points                  ...     2140
Total number of batches                      ...       35
Average number of points per batch           ...       61
Average number of grid points per atom       ...      535
UseSFitting                                  ... on

GRIDX 2
-------
General Integration Accuracy     IntAcc      ... 4.020
Radial Grid Type                 RadialGrid  ... OptM3 with GC (2021)
Angular Grid (max. ang.)         AngularGrid ... 2 (Lebedev-110)
Angular grid pruning method      GridPruning ... 4 (adaptive)
Weight generation scheme         WeightScheme... Becke
Basis function cutoff            BFCut       ... 1.0000e-10
Integration weight cutoff        WCut        ... 1.0000e-14
Angular grids for H and He will be reduced by one unit
Partially contracted basis set               ... on
Rotationally invariant grid construction     ... off

Total number of grid points                  ...     5057
Total number of batches                      ...       81
Average number of points per batch           ...       62
Average number of grid points per atom       ...     1264
UseSFitting                                  ... on

GRIDX 3
-------
General Integration Accuracy     IntAcc      ... 4.338
Radial Grid Type                 RadialGrid  ... OptM3 with GC (2021)
Angular Grid (max. ang.)         AngularGrid ... 3 (Lebedev-194)
Angular grid pruning method      GridPruning ... 4 (adaptive)
Weight generation scheme         WeightScheme... Becke
Basis function cutoff            BFCut       ... 1.0000e-10
Integration weight cutoff        WCut        ... 1.0000e-14
Angular grids for H and He will be reduced by one unit
Partially contracted basis set               ... on
Rotationally invariant grid construction     ... off

Total number of grid points                  ...    11726
Total number of batches                      ...      186
Average number of points per batch           ...       63
Average number of grid points per atom       ...     2932
UseSFitting                                  ... on

Time for X-Grid setup             =    0.242 sec

--------------
SCF ITERATIONS
--------------
ITER       Energy         Delta-E        Max-DP      RMS-DP      [F,P]     Damp
               ***  Starting incremental Fock matrix formation  ***
  0    -39.7820676567   0.000000000000 0.01610697  0.00051048  0.0926239 0.7000
  1    -39.8021963328  -0.020128676082 0.01012000  0.00037900  0.0476095 0.7000
                               ***Turning on DIIS***
  2    -39.8111831928  -0.008986860026 0.01639942  0.00066234  0.0187010 0.0000
  3    -39.8234772233  -0.012294030500 0.00702776  0.00028282  0.0269139 0.0000
  4    -39.8271424833  -0.003665259947 0.00255602  0.00007864  0.0049501 0.0000
  5    -39.8272926633  -0.000150180030 0.00089919  0.00003179  0.0013837 0.0000
  6    -39.8273097748  -0.000017111473 0.00046438  0.00002407  0.0004972 0.0000
               *** Restarting incremental Fock matrix formation ***
                                   *** Resetting DIIS ***
  7    -39.8273142835  -0.000004508733 0.00007567  0.00000278  0.0000794 0.0000
                 **** Energy Check signals convergence ****

               *****************************************************
               *                     SUCCESS                       *
               *           SCF CONVERGED AFTER   8 CYCLES          *
               *****************************************************

Old exchange energy                            =     -1.244828028 Eh
New exchange energy                            =     -1.244826657 Eh
Exchange energy change after final integration =      0.000001371 Eh
Total energy after final integration           =    -39.827312978 Eh
Final COS-X integration done in                =     0.179 sec

----------------
TOTAL SCF ENERGY
----------------

Total Energy       :          -39.82731298 Eh           -1083.75628 eV

Components:
Nuclear Repulsion  :            9.80755637 Eh             266.87718 eV
Electronic Energy  :          -49.63486934 Eh           -1350.63346 eV
One Electron Energy:          -71.89701918 Eh           -1956.41735 eV
Two Electron Energy:           22.26214983 Eh             605.78389 eV
Max COSX asymmetry :            0.00000005 Eh               0.00000 eV

Virial components:
Potential Energy   :          -79.51510564 Eh           -2163.71603 eV
Kinetic Energy     :           39.68779267 Eh            1079.95974 eV
Virial Ratio       :            2.00351545


DFT components:
N(Alpha)           :        4.999999755078 electrons
N(Beta)            :        4.000000717632 electrons
N(Total)           :        9.000000472710 electrons
E(X)               :       -4.925594703461 Eh       
E(C)               :       -0.310424322693 Eh       
E(XC)              :       -5.236019026154 Eh       
DFET-embed. en.    :        0.000000000000 Eh       

---------------
SCF CONVERGENCE
---------------

  Last Energy change         ...   -6.5594e-08  Tolerance :   1.0000e-06
  Last MAX-Density change    ...    0.0000e+00  Tolerance :   1.0000e-05
  Last RMS-Density change    ...    0.0000e+00  Tolerance :   1.0000e-06
  Last DIIS Error            ...    6.4212e-05  Tolerance :   1.0000e-06

             **** THE GBW FILE WAS UPDATED (/home/rwth0701/scratch/cs681498/orcajob__30556111-NJz0/1226.gbw) ****
             **** DENSITY /home/rwth0701/scratch/cs681498/orcajob__30556111-NJz0/1226.scfp WAS UPDATED ****
             **** ENERGY FILE WAS UPDATED (/home/rwth0701/scratch/cs681498/orcajob__30556111-NJz0/1226.en.tmp) ****
----------------------
UHF SPIN CONTAMINATION
----------------------

Warning: in a DFT calculation there is little theoretical justification to 
         calculate <S**2> as in Hartree-Fock theory. We will do it anyways
         but you should keep in mind that the values have only limited relevance

Expectation value of <S**2>     :     0.753478
Ideal value S*(S+1) for S=0.5   :     0.750000
Deviation                       :     0.003478

             **** THE GBW FILE WAS UPDATED (/home/rwth0701/scratch/cs681498/orcajob__30556111-NJz0/1226.gbw) ****
             **** DENSITY /home/rwth0701/scratch/cs681498/orcajob__30556111-NJz0/1226.scfp WAS UPDATED ****
----------------
ORBITAL ENERGIES
----------------
                 SPIN UP ORBITALS
  NO   OCC          E(Eh)            E(eV) 
   0   1.0000     -10.179443      -276.9967 
   1   1.0000      -0.691835       -18.8258 
   2   1.0000      -0.432776       -11.7764 
   3   1.0000      -0.419430       -11.4133 
   4   1.0000      -0.234605        -6.3839 
   5   0.0000       0.001464         0.0398 
   6   0.0000       0.036119         0.9828 
   7   0.0000       0.037500         1.0204 
   8   0.0000       0.047575         1.2946 
   9   0.0000       0.090241         2.4556 
  10   0.0000       0.095177         2.5899 
  11   0.0000       0.098382         2.6771 
  12   0.0000       0.221502         6.0274 
  13   0.0000       0.224308         6.1037 
  14   0.0000       0.247723         6.7409 
  15   0.0000       0.276491         7.5237 
  16   0.0000       0.305618         8.3163 
  17   0.0000       0.318574         8.6688 
  18   0.0000       0.350158         9.5283 
  19   0.0000       0.556427        15.1411 
  20   0.0000       0.566333        15.4107 
  21   0.0000       0.740218        20.1424 
  22   0.0000       0.745068        20.2743 
  23   0.0000       0.763633        20.7795 
  24   0.0000       0.844244        22.9731 
  25   0.0000       0.893899        24.3242 
  26   0.0000       0.903621        24.5888 
  27   0.0000       0.946651        25.7597 
  28   0.0000       0.969498        26.3814 
  29   0.0000       1.062469        28.9113 
  30   0.0000       1.078781        29.3551 
  31   0.0000       1.106112        30.0988 
  32   0.0000       1.167159        31.7600 
  33   0.0000       1.169621        31.8270 
  34   0.0000       1.475928        40.1621 
  35   0.0000       1.490461        40.5575 
  36   0.0000       1.516374        41.2626 
  37   0.0000       1.710008        46.5317 
  38   0.0000       1.745715        47.5033 
  39   0.0000       1.760526        47.9063 
  40   0.0000       2.712281        73.8049 
  41   0.0000       2.722432        74.0811 
  42   0.0000       2.894248        78.7565 
  43   0.0000       2.903369        79.0047 
  44   0.0000       2.929275        79.7096 
  45   0.0000       2.953886        80.3793 
  46   0.0000       2.995539        81.5128 
  47   0.0000       3.165783        86.1453 
  48   0.0000       3.179989        86.5319 
  49   0.0000       3.242978        88.2459 
  50   0.0000       3.248786        88.4039 
  51   0.0000       3.712900       101.0331 
  52   0.0000       3.789318       103.1126 
  53   0.0000       3.839817       104.4867 
  54   0.0000       3.934305       107.0579 
  55   0.0000       4.002880       108.9239 
  56   0.0000       4.075963       110.9126 
  57   0.0000       4.165743       113.3556 
  58   0.0000       4.177131       113.6655 
  59   0.0000       4.183572       113.8408 
  60   0.0000       4.735201       128.8514 
  61   0.0000       4.990761       135.8055 
  62   0.0000       5.390631       146.6865 
  63   0.0000       5.460142       148.5780 
  64   0.0000       5.581511       151.8806 
  65   0.0000       6.122546       166.6029 
  66   0.0000       6.185091       168.3049 
  67   0.0000       7.810565       212.5363 
  68   0.0000      29.112521       792.1920 
  69   0.0000      37.163626      1011.2737 
  70   0.0000      37.226157      1012.9752 
  71   0.0000      37.236680      1013.2616 
  72   0.0000     133.579090      3634.8718 

                 SPIN DOWN ORBITALS
  NO   OCC          E(Eh)            E(eV) 
   0   1.0000     -10.165103      -276.6065 
   1   1.0000      -0.652555       -17.7569 
   2   1.0000      -0.423183       -11.5154 
   3   1.0000      -0.409770       -11.1504 
   4   0.0000      -0.077404        -2.1063 
   5   0.0000       0.004466         0.1215 
   6   0.0000       0.035719         0.9720 
   7   0.0000       0.037072         1.0088 
   8   0.0000       0.060798         1.6544 
   9   0.0000       0.091807         2.4982 
  10   0.0000       0.096165         2.6168 
  11   0.0000       0.101957         2.7744 
  12   0.0000       0.222579         6.0567 
  13   0.0000       0.225531         6.1370 
  14   0.0000       0.268082         7.2949 
  15   0.0000       0.310634         8.4528 
  16   0.0000       0.310806         8.4574 
  17   0.0000       0.323239         8.7958 
  18   0.0000       0.364033         9.9059 
  19   0.0000       0.583531        15.8787 
  20   0.0000       0.594296        16.1716 
  21   0.0000       0.741091        20.1661 
  22   0.0000       0.746688        20.3184 
  23   0.0000       0.791329        21.5332 
  24   0.0000       0.842612        22.9286 
  25   0.0000       0.897978        24.4352 
  26   0.0000       0.908744        24.7282 
  27   0.0000       0.963923        26.2297 
  28   0.0000       0.989872        26.9358 
  29   0.0000       1.099172        29.9100 
  30   0.0000       1.120674        30.4951 
  31   0.0000       1.129691        30.7405 
  32   0.0000       1.180007        32.1096 
  33   0.0000       1.181797        32.1583 
  34   0.0000       1.495815        40.7032 
  35   0.0000       1.500588        40.8331 
  36   0.0000       1.524966        41.4964 
  37   0.0000       1.713207        46.6187 
  38   0.0000       1.754274        47.7362 
  39   0.0000       1.769273        48.1444 
  40   0.0000       2.753066        74.9147 
  41   0.0000       2.763076        75.1871 
  42   0.0000       2.901826        78.9627 
  43   0.0000       2.934064        79.8399 
  44   0.0000       2.950230        80.2798 
  45   0.0000       2.983633        81.1888 
  46   0.0000       3.048923        82.9654 
  47   0.0000       3.216077        87.5139 
  48   0.0000       3.229676        87.8840 
  49   0.0000       3.300350        89.8071 
  50   0.0000       3.306620        89.9777 
  51   0.0000       3.774118       102.6990 
  52   0.0000       3.789318       103.1126 
  53   0.0000       3.839225       104.4706 
  54   0.0000       3.935381       107.0872 
  55   0.0000       4.018082       109.3376 
  56   0.0000       4.092390       111.3596 
  57   0.0000       4.181230       113.7771 
  58   0.0000       4.186858       113.9302 
  59   0.0000       4.191726       114.0627 
  60   0.0000       4.735564       128.8613 
  61   0.0000       5.013736       136.4307 
  62   0.0000       5.389348       146.6516 
  63   0.0000       5.458321       148.5285 
  64   0.0000       5.579303       151.8205 
  65   0.0000       6.125748       166.6901 
  66   0.0000       6.188958       168.4101 
  67   0.0000       7.846255       213.5075 
  68   0.0000      29.139386       792.9230 
  69   0.0000      37.151960      1010.9562 
  70   0.0000      37.214662      1012.6624 
  71   0.0000      37.225529      1012.9581 
  72   0.0000     133.586903      3635.0844 

                    ********************************
                    * MULLIKEN POPULATION ANALYSIS *
                    ********************************

--------------------------------------------
MULLIKEN ATOMIC CHARGES AND SPIN POPULATIONS
--------------------------------------------
   0 C :   -0.427420    1.100235
   1 H :    0.139661   -0.035219
   2 H :    0.142025   -0.032358
   3 H :    0.145734   -0.032658
Sum of atomic charges         :   -0.0000000
Sum of atomic spin populations:    1.0000000

-----------------------------------------------------
MULLIKEN REDUCED ORBITAL CHARGES AND SPIN POPULATIONS
-----------------------------------------------------
CHARGE
  0 C s       :     3.323533  s :     3.323533
      pz      :     1.049963  p :     3.077491
      px      :     1.013118
      py      :     1.014410
      dz2     :     0.006379  d :     0.023259
      dxz     :     0.004949
      dyz     :     0.005117
      dx2y2   :     0.000724
      dxy     :     0.006089
      f0      :     0.000124  f :     0.003138
      f+1     :     0.000778
      f-1     :     0.000921
      f+2     :     0.000332
      f-2     :     0.000247
      f+3     :     0.000436
      f-3     :     0.000299
  1 H s       :     0.834370  s :     0.834370
      pz      :     0.006371  p :     0.025969
      px      :     0.009715
      py      :     0.009882
  2 H s       :     0.830278  s :     0.830278
      pz      :     0.009236  p :     0.027697
      px      :     0.009710
      py      :     0.008751
  3 H s       :     0.826768  s :     0.826768
      pz      :     0.009187  p :     0.027497
      px      :     0.008795
      py      :     0.009516

SPIN
  0 C s       :     0.066795  s :     0.066795
      pz      :     0.110288  p :     1.037818
      px      :     0.481653
      py      :     0.445877
      dz2     :    -0.000180  d :    -0.003008
      dxz     :     0.000026
      dyz     :    -0.000232
      dx2y2   :     0.000067
      dxy     :    -0.002687
      f0      :    -0.000083  f :    -0.001371
      f+1     :    -0.000204
      f-1     :    -0.000191
      f+2     :    -0.000133
      f-2     :    -0.000209
      f+3     :    -0.000316
      f-3     :    -0.000235
  1 H s       :    -0.045176  s :    -0.045176
      pz      :     0.000566  p :     0.009957
      px      :     0.004852
      py      :     0.004539
  2 H s       :    -0.042920  s :    -0.042920
      pz      :     0.000730  p :     0.010562
      px      :     0.005178
      py      :     0.004655
  3 H s       :    -0.043471  s :    -0.043471
      pz      :     0.000801  p :     0.010813
      px      :     0.005216
      py      :     0.004796


                     *******************************
                     * LOEWDIN POPULATION ANALYSIS *
                     *******************************

-------------------------------------------
LOEWDIN ATOMIC CHARGES AND SPIN POPULATIONS
-------------------------------------------
   0 C :   -0.135616    0.900512
   1 H :    0.058207    0.028780
   2 H :    0.033556    0.036978
   3 H :    0.043852    0.033729

----------------------------------------------------
LOEWDIN REDUCED ORBITAL CHARGES AND SPIN POPULATIONS
----------------------------------------------------
CHARGE
  0 C s       :     2.869334  s :     2.869334
      pz      :     1.130667  p :     3.166540
      px      :     1.013794
      py      :     1.022078
      dz2     :     0.028135  d :     0.092001
      dxz     :     0.021374
      dyz     :     0.021938
      dx2y2   :     0.003422
      dxy     :     0.017133
      f0      :     0.000339  f :     0.007741
      f+1     :     0.001829
      f-1     :     0.001939
      f+2     :     0.000773
      f-2     :     0.000799
      f+3     :     0.001230
      f-3     :     0.000832
  1 H s       :     0.801226  s :     0.801226
      pz      :     0.031583  p :     0.140567
      px      :     0.053409
      py      :     0.055575
  2 H s       :     0.809322  s :     0.809322
      pz      :     0.062198  p :     0.157121
      px      :     0.052182
      py      :     0.042741
  3 H s       :     0.806050  s :     0.806050
      pz      :     0.061581  p :     0.150097
      px      :     0.039743
      py      :     0.048773

SPIN
  0 C s       :     0.018355  s :     0.018355
      pz      :     0.081037  p :     0.890855
      px      :     0.421476
      py      :     0.388342
      dz2     :    -0.001664  d :    -0.007390
      dxz     :    -0.001120
      dyz     :    -0.001394
      dx2y2   :    -0.000134
      dxy     :    -0.003079
      f0      :    -0.000045  f :    -0.001308
      f+1     :    -0.000260
      f-1     :    -0.000268
      f+2     :    -0.000148
      f-2     :    -0.000147
      f+3     :    -0.000267
      f-3     :    -0.000173
  1 H s       :    -0.017228  s :    -0.017228
      pz      :     0.003783  p :     0.046007
      px      :     0.021671
      py      :     0.020553
  2 H s       :    -0.015146  s :    -0.015146
      pz      :     0.007016  p :     0.052124
      px      :     0.023933
      py      :     0.021175
  3 H s       :    -0.016236  s :    -0.016236
      pz      :     0.006971  p :     0.049966
      px      :     0.021837
      py      :     0.021158


                      *****************************
                      * MAYER POPULATION ANALYSIS *
                      *****************************

  NA   - Mulliken gross atomic population
  ZA   - Total nuclear charge
  QA   - Mulliken gross atomic charge
  VA   - Mayer's total valence
  BVA  - Mayer's bonded valence
  FA   - Mayer's free valence

  ATOM       NA         ZA         QA         VA         BVA        FA
  0 C      6.4274     6.0000    -0.4274     3.8821     2.9385     0.9436
  1 H      0.8603     1.0000     0.1397     0.9846     0.9826     0.0020
  2 H      0.8580     1.0000     0.1420     0.9827     0.9808     0.0018
  3 H      0.8543     1.0000     0.1457     0.9860     0.9841     0.0019

  Mayer bond orders larger than 0.100000
B(  0-C ,  1-H ) :   0.9796 B(  0-C ,  2-H ) :   0.9798 B(  0-C ,  3-H ) :   0.9791 


-------
TIMINGS
-------

Total SCF time: 0 days 0 hours 0 min 4 sec 

Total time                  ....       4.915 sec
Sum of individual times     ....       4.304 sec  ( 87.6%)

Fock matrix formation       ....       3.555 sec  ( 72.3%)
  Split-RI-J                ....       0.416 sec  ( 11.7% of F)
  Chain of spheres X        ....       0.919 sec  ( 25.9% of F)
  XC integration            ....       1.348 sec  ( 37.9% of F)
    Basis function eval.    ....       0.113 sec  (  8.3% of XC)
    Density eval.           ....       0.101 sec  (  7.5% of XC)
    XC-Functional eval.     ....       0.095 sec  (  7.0% of XC)
    XC-Potential eval.      ....       0.160 sec  ( 11.9% of XC)
Diagonalization             ....       0.069 sec  (  1.4%)
Density matrix formation    ....       0.002 sec  (  0.0%)
Population analysis         ....       0.067 sec  (  1.4%)
Initial guess               ....       0.098 sec  (  2.0%)
Orbital Transformation      ....       0.000 sec  (  0.0%)
Orbital Orthonormalization  ....       0.000 sec  (  0.0%)
DIIS solution               ....       0.081 sec  (  1.7%)
Grid generation             ....       0.432 sec  (  8.8%)

Maximum memory used throughout the entire SCF-calculation: 59.0 MB

-------------------------   --------------------
FINAL SINGLE POINT ENERGY       -39.827312978123
-------------------------   --------------------

   --->>> g-tensor requested, so NeedSOC=true

                            ***************************************
                            *     ORCA property calculations      *
                            ***************************************

                                    ---------------------
                                    Active property flags
                                    ---------------------
   (+) Dipole Moment
   (+) g-tensor
   (+) Nuclear properties (Hyperfine,Quadrupole)
   (+) Spin-Orbit Integrals are needed


------------------------------------------------------------------------------
                       ORCA ELECTRIC PROPERTIES CALCULATION
------------------------------------------------------------------------------

Dipole Moment Calculation                       ... on
Quadrupole Moment Calculation                   ... off
Polarizability Calculation                      ... off
GBWName                                         ... /home/rwth0701/scratch/cs681498/orcajob__30556111-NJz0/1226.gbw
Electron density                                ... /home/rwth0701/scratch/cs681498/orcajob__30556111-NJz0/1226.scfp
The origin for moment calculation is the CENTER OF MASS  = (16.495049, -9.400612 -15.358480)

-------------
DIPOLE MOMENT
-------------
                                X             Y             Z
Electronic contribution:      0.02589       0.03049       0.03511
Nuclear contribution   :     -0.02444      -0.02593      -0.04475
                        -----------------------------------------
Total Dipole Moment    :      0.00145       0.00456      -0.00964
                        -----------------------------------------
Magnitude (a.u.)       :      0.01076
Magnitude (Debye)      :      0.02735



--------------------
Rotational spectrum 
--------------------
 
Rotational constants in cm-1:    10.419018     9.296936     4.913236 
Rotational constants in MHz : 312354.293850 278715.132069 147295.097099 

 Dipole components along the rotational axes: 
x,y,z [a.u.] :    -0.002058    -0.009425    -0.004768 
x,y,z [Debye]:    -0.005230    -0.023955    -0.012118 

 


           ************************************************************
           *        Program running with 4 parallel MPI-processes     *
           *              working on a common directory               *
           ************************************************************
------------------------------------------------------------------------------
                         ORCA SPIN-ORBIT COUPLING CALCULATION
------------------------------------------------------------------------------

GBW file                                    ... /home/rwth0701/scratch/cs681498/orcajob__30556111-NJz0/1226.gbw
Input density                               ... /home/rwth0701/scratch/cs681498/orcajob__30556111-NJz0/1226.scfp
Output integrals                            ... /home/rwth0701/scratch/cs681498/orcajob__30556111-NJz0/1226
Operator type                               ... Mean-field/Effective potential
   One-Electron Terms                       ... 1
   Coulomb Contribution                     ... 3
   Exchange Contribution                    ... 3
   Correlation Contribution                 ... 0
   Maximum number of centers                ... 4
SHARK 2-electron RIJ-SOMF                   ... done (  0.2 sec)
SHARK 1-electron  MaxCenter=4               ... done (  0.0 sec)
SHARK 2-electron DoJ,X=0,1 MaxCenter=1      ... done (  0.1 sec)

Maximum memory used throughout the entire SOC-calculation: 11.3 MB
Total time for SOC:  2.013


           ************************************************************
           *        Program running with 4 parallel MPI-processes     *
           *              working on a common directory               *
           ************************************************************
------------------------------------------------------------------------------
                                ORCA EPR/NMR CALCULATION
------------------------------------------------------------------------------

GBWName                      ... /home/rwth0701/scratch/cs681498/orcajob__30556111-NJz0/1226.gbw
Electron density             ... /home/rwth0701/scratch/cs681498/orcajob__30556111-NJz0/1226.scfp
Spin density                 ... /home/rwth0701/scratch/cs681498/orcajob__30556111-NJz0/1226.scfr
Spin-orbit integrals         ... /home/rwth0701/scratch/cs681498/orcajob__30556111-NJz0/1226
Treatment of gauge           ... GIAO (approximations 1/2el = 0,0)
Details of the CP(SCF) procedure:
       Solver   = POPLE   
       MaxIter  =    64   
       Tolerance=    1.000e-03
       COSX Grid=     1   
       Op-0     =   0-  4 =>   5- 72
       Op-1     =   0-  3 =>   4- 72
Multiplicity                 ... 2
g-tensor                     ... 1
NMR chemical shifts          ... 0
NMR spin-spin couplings      ... 0
NMR spectrum                 ... 0
Number of nuclei for epr/nmr ... 4
   Nucleus:   1H 
       Hyperfine : Isotope=    1 I=   0.500 P= 533.551
       Quadrupole: Isotope=    2 I=   1.000 Q=   0.003
       Spin-Orbit: Zeff=   1.000
       Nuclear Spin-Spin: Gn=   0.000
       EPRNMR Input: 
       rho(0)=N f(grad)=N a(iso)=Y a(dip)=Y a(orb)=Y sigma(nmr)=N spin-spin(nmr)=all-N,DSO-N,PSO-N,FC-N,SD-N
   Nucleus:   2H 
       Hyperfine : Isotope=    1 I=   0.500 P= 533.551
       Quadrupole: Isotope=    2 I=   1.000 Q=   0.003
       Spin-Orbit: Zeff=   1.000
       Nuclear Spin-Spin: Gn=   0.000
       EPRNMR Input: 
       rho(0)=N f(grad)=N a(iso)=Y a(dip)=Y a(orb)=Y sigma(nmr)=N spin-spin(nmr)=all-N,DSO-N,PSO-N,FC-N,SD-N
   Nucleus:   3H 
       Hyperfine : Isotope=    1 I=   0.500 P= 533.551
       Quadrupole: Isotope=    2 I=   1.000 Q=   0.003
       Spin-Orbit: Zeff=   1.000
       Nuclear Spin-Spin: Gn=   0.000
       EPRNMR Input: 
       rho(0)=N f(grad)=N a(iso)=Y a(dip)=Y a(orb)=Y sigma(nmr)=N spin-spin(nmr)=all-N,DSO-N,PSO-N,FC-N,SD-N
   Nucleus:   0C 
       Hyperfine : Isotope=   13 I=   0.500 P= 134.190
       Quadrupole: Isotope=   13 I=   0.500 Q=   0.000
       Spin-Orbit: Zeff=   3.600
       Nuclear Spin-Spin: Gn=   0.000
       EPRNMR Input: 
       rho(0)=N f(grad)=N a(iso)=Y a(dip)=Y a(orb)=Y sigma(nmr)=N spin-spin(nmr)=all-N,DSO-N,PSO-N,FC-N,SD-N
Forming RHS of the CP-SCF equations         ... 
Calculating right hand sides for GIAO treatment        ... 
  Entering RightHandSide GIAO. ScalHFX=    0.2000 NeedHFX=1
     -> 1-electron GIAO integrals will be done analytically
     -> RIJCOSX used in SCF. Same chosen for GIAO calculation.
     Making grid for GIAO integrations   ...

GRID GIAO
---------

General Integration Accuracy     IntAcc      ... 4.388
Radial Grid Type                 RadialGrid  ... OptM3 with GC (2021)
Angular Grid (max. ang.)         AngularGrid ... 4 (Lebedev-302)
Angular grid pruning method      GridPruning ... 4 (adaptive)
Weight generation scheme         WeightScheme... Becke
Basis function cutoff            BFCut       ... 1.0000e-10
Integration weight cutoff        WCut        ... 1.0000e-14
Angular grids for H and He will be reduced by one unit
Partially contracted basis set               ... off
Rotationally invariant grid construction     ... off

Total number of grid points                  ...    17053
Total number of batches                      ...      269
Average number of points per batch           ...       63
Average number of grid points per atom       ...     4263

  One-electron GIAO integrals (SHARK)     ... done
  Calculating G(B)[P]                     ... (RI-J: SHARK-ok) (COSX-ok) (add-J+K:ok) => dG/dB done
  DFT XC-terms                            ... done
  Extracting occupied and virtual blocks  ... 
  Operator  0  NO=   5 NV=  68 
  Operator  1  NO=   4 NV=  69 
  Transforming and RHS contribution       ... done
  Adding eps_i * S(B)_ai terms            ... done
  Projecting overlap derivatives          ... done
  Building G[dS/dB_ij] (COSX)             ... done
  Transforming to MO basis                ... done
  Summing G[dS/dB_ij] into RHS contribs.  ... done

  GIAO profiling information: 
    Total GIAO time               ...       0.8 sec
       GIAO 1-electron integrals  ...       0.0 sec (  0.9%)
       GIAO G(dS/dB) terms        ...       0.1 sec ( 12.5%)
       GIAO RI-J                  ...       0.1 sec ( 13.2%)
       GIAO COSX                  ...       0.1 sec ( 18.9%)
       GIAO XC-terms              ...       0.3 sec ( 38.1%)

  GIAO right hand side done


------------------------------------------------------------------------------
                           ORCA CP-SCF CALCULATION
------------------------------------------------------------------------------

Input orbitals are from        ... /home/rwth0701/scratch/cs681498/orcajob__30556111-NJz0/1226.gbw
Input Perturbation             ... /home/rwth0701/scratch/cs681498/orcajob__30556111-NJz0/1226.pin.tmp
Wavefunction output            ... /home/rwth0701/scratch/cs681498/orcajob__30556111-NJz0/1226.pout.tmp
Perturbation mode              ... Imaginary perturbation
Solver                         ... POPLE
Max. number of iterations      ... 64
Convergence tolerance          ... 1.000e-03
Integral handling              ... Direct
DFT GridXC                     ... 1
COSX GridX                     ... 1
COSX IntAccX                   ... 3.067
COSX Algorithm                 ... Auto
Number of perturbations        ... 3
Number of operators            ... 2
Orbital ranges used for CP-SCF:
 Operator 0:  Orbitals   0...  4  to   5... 72
 Operator 1:  Orbitals   0...  3  to   4... 72
Variables per perturbation     ... 616
DFT calculation                         ... on
XC functional terms                     ... off
Hybrid DFT                              ... on
   Exchange mixing (SCF)                ...  0.200
   Exchange mixing (CP-SCF)             ...  0.200
   GGA exch. scaling(SCF)               ...  0.720
   GGA exch. scaling (CP-SCF)           ...  0.720
   GGA corr. scaling (SCF)              ...  0.810
   GGA corr. scaling (CP-SCF)           ...  0.810

CP-SCF GRID
-----------

General Integration Accuracy     IntAcc      ... 3.467
Radial Grid Type                 RadialGrid  ... OptM3 with GC (2021)
Angular Grid (max. ang.)         AngularGrid ... 1 (Lebedev-50)
Angular grid pruning method      GridPruning ... 4 (adaptive)
Weight generation scheme         WeightScheme... Becke
Basis function cutoff            BFCut       ... 1.0000e-10
Integration weight cutoff        WCut        ... 1.0000e-14
Angular grids for H and He will be reduced by one unit
Partially contracted basis set               ... off
Rotationally invariant grid construction     ... off

Total number of grid points                  ...     2327
Total number of batches                      ...       38
Average number of points per batch           ...       61
Average number of grid points per atom       ...      582

CP-SCF GRIDX
------------

General Integration Accuracy     IntAcc      ... 3.067
Radial Grid Type                 RadialGrid  ... OptM3 with GC (2021)
Angular Grid (max. ang.)         AngularGrid ... 1 (Lebedev-50)
Angular grid pruning method      GridPruning ... 4 (adaptive)
Weight generation scheme         WeightScheme... Becke
Basis function cutoff            BFCut       ... 1.0000e-10
Integration weight cutoff        WCut        ... 1.0000e-14
Angular grids for H and He will be reduced by one unit
Partially contracted basis set               ... on
Rotationally invariant grid construction     ... off

Total number of grid points                  ...     1072
Total number of batches                      ...       20
Average number of points per batch           ...       53
Average number of grid points per atom       ...      268

Memory available               ... 1014.6 MB
Memory needed per perturbation ...   0.4 MB
Perturbations treated per batch... 3
Number of batches              ... 1
     CP-SCF ITERATION   0:   8.4723e-01 (   0.1 sec   0/  3 done)
     CP-SCF ITERATION   1:   2.5719e-02 (   0.1 sec   0/  3 done)
     CP-SCF ITERATION   2:   1.4757e-03 (   0.1 sec   1/  3 done)
     CP-SCF ITERATION   3:   5.7476e-05 (   0.1 sec   3/  3 done)
                    *** THE CP-SCF HAS CONVERGED ***

Forming final perturbed densities           ... done
Transforming perturbed density to AO basis  ... done

Magnetic field perturbation calculated in  1.266 sec
GIAO: Diamagnetic terms      (analytic)     (SHARK) ... done
GIAO: 1el-Paramagnetic terms (analytic)     (SHARK) ... done

-------------------
ELECTRONIC G-MATRIX
-------------------

 The g-matrix: 
              2.0025848    0.0003127   -0.0001261
              0.0003130    2.0026179    0.0001360
             -0.0001239    0.0001364    2.0028522

 gel          2.0023193    2.0023193    2.0023193
 gRMC        -0.0001263   -0.0001263   -0.0001263
 gDSO(tot)    0.0000342    0.0000710    0.0000711
 gPSO(tot)    0.0000059    0.0006340    0.0006597
             ----------   ----------   ----------
 g(tot)       2.0022331    2.0028981    2.0029238 iso=  2.0026850
 Delta-g     -0.0000862    0.0005788    0.0006045 iso=  0.0003657
 Orientation: 
  X           0.6916240   -0.5775520   -0.4336934
  Y          -0.6633964   -0.2705507   -0.6976443
  Z           0.2855899    0.7702182   -0.5702652

Notes:  (1) The g-matrix conforms to the "BgS" spin Hamiltonian convention. 
        (2) The principal values are square roots of the eigenvalues of g*gT.
        (3) Orientations are eigenvectors of g*gT written as column vectors.
        (4) Individual contributions are projections of the full matrices onto the eigenvectors of g*gT.
        (5) Tensor is right-handed.


-----------------------------------------
ELECTRIC AND MAGNETIC HYPERFINE STRUCTURE
-----------------------------------------

 -----------------------------------------------------------
 Nucleus   1H : A:ISTP=    1 I=  0.5 P=533.5514 MHz/au**3
                Q:ISTP=    2 I=  1.0 Q=  0.0029 barn     
 -----------------------------------------------------------
 Solving for nuclear perturbation:
Forming RHS of the CP-SCF equations         ... 
Calc. nucleus orbit integrals (SHARK)       ... done

------------------------------------------------------------------------------
                           ORCA CP-SCF CALCULATION
------------------------------------------------------------------------------

Input orbitals are from        ... /home/rwth0701/scratch/cs681498/orcajob__30556111-NJz0/1226.gbw
Input Perturbation             ... /home/rwth0701/scratch/cs681498/orcajob__30556111-NJz0/1226.pin.tmp
Wavefunction output            ... /home/rwth0701/scratch/cs681498/orcajob__30556111-NJz0/1226.pout.tmp
Perturbation mode              ... Imaginary perturbation
Solver                         ... POPLE
Max. number of iterations      ... 64
Convergence tolerance          ... 1.000e-03
Integral handling              ... Direct
DFT GridXC                     ... 1
COSX GridX                     ... 1
COSX IntAccX                   ... 3.067
COSX Algorithm                 ... Auto
Number of perturbations        ... 3
Number of operators            ... 2
Orbital ranges used for CP-SCF:
 Operator 0:  Orbitals   0...  4  to   5... 72
 Operator 1:  Orbitals   0...  3  to   4... 72
Variables per perturbation     ... 616
DFT calculation                         ... on
XC functional terms                     ... off
Hybrid DFT                              ... on
   Exchange mixing (SCF)                ...  0.200
   Exchange mixing (CP-SCF)             ...  0.200
   GGA exch. scaling(SCF)               ...  0.720
   GGA exch. scaling (CP-SCF)           ...  0.720
   GGA corr. scaling (SCF)              ...  0.810
   GGA corr. scaling (CP-SCF)           ...  0.810

CP-SCF GRID
-----------

General Integration Accuracy     IntAcc      ... 3.467
Radial Grid Type                 RadialGrid  ... OptM3 with GC (2021)
Angular Grid (max. ang.)         AngularGrid ... 1 (Lebedev-50)
Angular grid pruning method      GridPruning ... 4 (adaptive)
Weight generation scheme         WeightScheme... Becke
Basis function cutoff            BFCut       ... 1.0000e-10
Integration weight cutoff        WCut        ... 1.0000e-14
Angular grids for H and He will be reduced by one unit
Partially contracted basis set               ... off
Rotationally invariant grid construction     ... off

Total number of grid points                  ...     2327
Total number of batches                      ...       38
Average number of points per batch           ...       61
Average number of grid points per atom       ...      582

CP-SCF GRIDX
------------

General Integration Accuracy     IntAcc      ... 3.067
Radial Grid Type                 RadialGrid  ... OptM3 with GC (2021)
Angular Grid (max. ang.)         AngularGrid ... 1 (Lebedev-50)
Angular grid pruning method      GridPruning ... 4 (adaptive)
Weight generation scheme         WeightScheme... Becke
Basis function cutoff            BFCut       ... 1.0000e-10
Integration weight cutoff        WCut        ... 1.0000e-14
Angular grids for H and He will be reduced by one unit
Partially contracted basis set               ... on
Rotationally invariant grid construction     ... off

Total number of grid points                  ...     1072
Total number of batches                      ...       20
Average number of points per batch           ...       53
Average number of grid points per atom       ...      268

Memory available               ... 968.0 MB
Memory needed per perturbation ...   0.4 MB
Perturbations treated per batch... 3
Number of batches              ... 1
     CP-SCF ITERATION   0:   5.4748e-02 (   0.1 sec   0/  3 done)
     CP-SCF ITERATION   1:   2.3630e-03 (   0.1 sec   0/  3 done)
     CP-SCF ITERATION   2:   1.5973e-04 (   0.1 sec   3/  3 done)
                    *** THE CP-SCF HAS CONVERGED ***

Forming final perturbed densities           ... done
Transforming perturbed density to AO basis  ... done

 Raw HFC matrix (all values in MHz): 
 -----------------------------------
               -50.1200              19.8802              12.2097
                19.8803             -45.0446              -2.6887
                12.2098              -2.6886            -100.1942

 A(FC)         -65.1344             -65.1344             -65.1344
 A(SD)          38.1002               0.7626             -38.8628
 A(ORB+DIA)      0.0147              -0.0008               0.0305    A(PC) =   0.0148
 A(ORB)          0.0099               0.0004               0.0291    A(PC) =   0.0131
 A(DIA)          0.0048              -0.0011               0.0014    A(PC) =   0.0017
             ----------           ----------           ----------
 A(Tot)        -27.0195             -64.3726            -103.9668    A(iso)=  -65.1196
 Orientation: 
  X           0.6755633           -0.6877691           -0.2656838
  Y           0.7322910            0.6678360            0.1332106
  Z           0.0858151           -0.2845500            0.9548126

Notes:  (1) The A matrix conforms to the "SAI" spin Hamiltonian convention.
        (2) Tensor is right-handed.

 -----------------------------------------------------------
 Nucleus   2H : A:ISTP=    1 I=  0.5 P=533.5514 MHz/au**3
                Q:ISTP=    2 I=  1.0 Q=  0.0029 barn     
 -----------------------------------------------------------
 Solving for nuclear perturbation:
Forming RHS of the CP-SCF equations         ... 
Calc. nucleus orbit integrals (SHARK)       ... done

------------------------------------------------------------------------------
                           ORCA CP-SCF CALCULATION
------------------------------------------------------------------------------

Input orbitals are from        ... /home/rwth0701/scratch/cs681498/orcajob__30556111-NJz0/1226.gbw
Input Perturbation             ... /home/rwth0701/scratch/cs681498/orcajob__30556111-NJz0/1226.pin.tmp
Wavefunction output            ... /home/rwth0701/scratch/cs681498/orcajob__30556111-NJz0/1226.pout.tmp
Perturbation mode              ... Imaginary perturbation
Solver                         ... POPLE
Max. number of iterations      ... 64
Convergence tolerance          ... 1.000e-03
Integral handling              ... Direct
DFT GridXC                     ... 1
COSX GridX                     ... 1
COSX IntAccX                   ... 3.067
COSX Algorithm                 ... Auto
Number of perturbations        ... 3
Number of operators            ... 2
Orbital ranges used for CP-SCF:
 Operator 0:  Orbitals   0...  4  to   5... 72
 Operator 1:  Orbitals   0...  3  to   4... 72
Variables per perturbation     ... 616
DFT calculation                         ... on
XC functional terms                     ... off
Hybrid DFT                              ... on
   Exchange mixing (SCF)                ...  0.200
   Exchange mixing (CP-SCF)             ...  0.200
   GGA exch. scaling(SCF)               ...  0.720
   GGA exch. scaling (CP-SCF)           ...  0.720
   GGA corr. scaling (SCF)              ...  0.810
   GGA corr. scaling (CP-SCF)           ...  0.810

CP-SCF GRID
-----------

General Integration Accuracy     IntAcc      ... 3.467
Radial Grid Type                 RadialGrid  ... OptM3 with GC (2021)
Angular Grid (max. ang.)         AngularGrid ... 1 (Lebedev-50)
Angular grid pruning method      GridPruning ... 4 (adaptive)
Weight generation scheme         WeightScheme... Becke
Basis function cutoff            BFCut       ... 1.0000e-10
Integration weight cutoff        WCut        ... 1.0000e-14
Angular grids for H and He will be reduced by one unit
Partially contracted basis set               ... off
Rotationally invariant grid construction     ... off

Total number of grid points                  ...     2327
Total number of batches                      ...       38
Average number of points per batch           ...       61
Average number of grid points per atom       ...      582

CP-SCF GRIDX
------------

General Integration Accuracy     IntAcc      ... 3.067
Radial Grid Type                 RadialGrid  ... OptM3 with GC (2021)
Angular Grid (max. ang.)         AngularGrid ... 1 (Lebedev-50)
Angular grid pruning method      GridPruning ... 4 (adaptive)
Weight generation scheme         WeightScheme... Becke
Basis function cutoff            BFCut       ... 1.0000e-10
Integration weight cutoff        WCut        ... 1.0000e-14
Angular grids for H and He will be reduced by one unit
Partially contracted basis set               ... on
Rotationally invariant grid construction     ... off

Total number of grid points                  ...     1072
Total number of batches                      ...       20
Average number of points per batch           ...       53
Average number of grid points per atom       ...      268

Memory available               ... 967.8 MB
Memory needed per perturbation ...   0.4 MB
Perturbations treated per batch... 3
Number of batches              ... 1
     CP-SCF ITERATION   0:   6.5486e-02 (   0.1 sec   0/  3 done)
     CP-SCF ITERATION   1:   2.5136e-03 (   0.1 sec   0/  3 done)
     CP-SCF ITERATION   2:   1.9163e-04 (   0.1 sec   3/  3 done)
                    *** THE CP-SCF HAS CONVERGED ***

Forming final perturbed densities           ... done
Transforming perturbed density to AO basis  ... done

 Raw HFC matrix (all values in MHz): 
 -----------------------------------
               -60.3842             -12.2226             -26.7861
               -12.2225             -81.8219             -22.3967
               -26.7860             -22.3965             -45.9465

 A(FC)         -62.7328             -62.7328             -62.7328
 A(SD)          39.4732               3.2113             -42.6845
 A(ORB+DIA)      0.0136              -0.0007               0.0330    A(PC) =   0.0153
 A(ORB)          0.0082               0.0005               0.0314    A(PC) =   0.0134
 A(DIA)          0.0054              -0.0012               0.0016    A(PC) =   0.0019
             ----------           ----------           ----------
 A(Tot)        -23.2460             -59.5222            -105.3844    A(iso)=  -62.7175
 Orientation: 
  X          -0.5271759            0.6953164            0.4884882
  Y          -0.2052820           -0.6620383            0.7208083
  Z           0.8245877            0.2797149            0.4917465

Notes:  (1) The A matrix conforms to the "SAI" spin Hamiltonian convention.
        (2) Tensor is right-handed.

 -----------------------------------------------------------
 Nucleus   3H : A:ISTP=    1 I=  0.5 P=533.5514 MHz/au**3
                Q:ISTP=    2 I=  1.0 Q=  0.0029 barn     
 -----------------------------------------------------------
 Solving for nuclear perturbation:
Forming RHS of the CP-SCF equations         ... 
Calc. nucleus orbit integrals (SHARK)       ... done

------------------------------------------------------------------------------
                           ORCA CP-SCF CALCULATION
------------------------------------------------------------------------------

Input orbitals are from        ... /home/rwth0701/scratch/cs681498/orcajob__30556111-NJz0/1226.gbw
Input Perturbation             ... /home/rwth0701/scratch/cs681498/orcajob__30556111-NJz0/1226.pin.tmp
Wavefunction output            ... /home/rwth0701/scratch/cs681498/orcajob__30556111-NJz0/1226.pout.tmp
Perturbation mode              ... Imaginary perturbation
Solver                         ... POPLE
Max. number of iterations      ... 64
Convergence tolerance          ... 1.000e-03
Integral handling              ... Direct
DFT GridXC                     ... 1
COSX GridX                     ... 1
COSX IntAccX                   ... 3.067
COSX Algorithm                 ... Auto
Number of perturbations        ... 3
Number of operators            ... 2
Orbital ranges used for CP-SCF:
 Operator 0:  Orbitals   0...  4  to   5... 72
 Operator 1:  Orbitals   0...  3  to   4... 72
Variables per perturbation     ... 616
DFT calculation                         ... on
XC functional terms                     ... off
Hybrid DFT                              ... on
   Exchange mixing (SCF)                ...  0.200
   Exchange mixing (CP-SCF)             ...  0.200
   GGA exch. scaling(SCF)               ...  0.720
   GGA exch. scaling (CP-SCF)           ...  0.720
   GGA corr. scaling (SCF)              ...  0.810
   GGA corr. scaling (CP-SCF)           ...  0.810

CP-SCF GRID
-----------

General Integration Accuracy     IntAcc      ... 3.467
Radial Grid Type                 RadialGrid  ... OptM3 with GC (2021)
Angular Grid (max. ang.)         AngularGrid ... 1 (Lebedev-50)
Angular grid pruning method      GridPruning ... 4 (adaptive)
Weight generation scheme         WeightScheme... Becke
Basis function cutoff            BFCut       ... 1.0000e-10
Integration weight cutoff        WCut        ... 1.0000e-14
Angular grids for H and He will be reduced by one unit
Partially contracted basis set               ... off
Rotationally invariant grid construction     ... off

Total number of grid points                  ...     2327
Total number of batches                      ...       38
Average number of points per batch           ...       61
Average number of grid points per atom       ...      582

CP-SCF GRIDX
------------

General Integration Accuracy     IntAcc      ... 3.067
Radial Grid Type                 RadialGrid  ... OptM3 with GC (2021)
Angular Grid (max. ang.)         AngularGrid ... 1 (Lebedev-50)
Angular grid pruning method      GridPruning ... 4 (adaptive)
Weight generation scheme         WeightScheme... Becke
Basis function cutoff            BFCut       ... 1.0000e-10
Integration weight cutoff        WCut        ... 1.0000e-14
Angular grids for H and He will be reduced by one unit
Partially contracted basis set               ... on
Rotationally invariant grid construction     ... off

Total number of grid points                  ...     1072
Total number of batches                      ...       20
Average number of points per batch           ...       53
Average number of grid points per atom       ...      268

Memory available               ... 967.7 MB
Memory needed per perturbation ...   0.4 MB
Perturbations treated per batch... 3
Number of batches              ... 1
     CP-SCF ITERATION   0:   6.6053e-02 (   0.1 sec   0/  3 done)
     CP-SCF ITERATION   1:   2.6225e-03 (   0.1 sec   0/  3 done)
     CP-SCF ITERATION   2:   2.0050e-04 (   0.1 sec   3/  3 done)
                    *** THE CP-SCF HAS CONVERGED ***

Forming final perturbed densities           ... done
Transforming perturbed density to AO basis  ... done

 Raw HFC matrix (all values in MHz): 
 -----------------------------------
               -83.8592             -13.8545              18.3953
               -13.8547             -65.7157              26.7979
                18.3948              26.7974             -45.8823

 A(FC)         -65.1673             -65.1673             -65.1673
 A(SD)          38.9707               2.2163             -41.1870
 A(ORB+DIA)      0.0139              -0.0007               0.0315    A(PC) =   0.0149
 A(ORB)          0.0088               0.0005               0.0300    A(PC) =   0.0131
 A(DIA)          0.0052              -0.0012               0.0015    A(PC) =   0.0018
             ----------           ----------           ----------
 A(Tot)        -26.1827             -62.9517            -106.3228    A(iso)=  -65.1524
 Orientation: 
  X           0.1434967           -0.6927441           -0.7067632
  Y           0.5203401            0.6602862           -0.5415425
  Z           0.8418164           -0.2900477            0.4552115

Notes:  (1) The A matrix conforms to the "SAI" spin Hamiltonian convention.
        (2) Tensor is right-handed.

 -----------------------------------------------------------
 Nucleus   0C : A:ISTP=   13 I=  0.5 P=134.1903 MHz/au**3
                Q:ISTP=   13 I=  0.5 Q=  0.0000 barn     
 -----------------------------------------------------------
 Solving for nuclear perturbation:
Forming RHS of the CP-SCF equations         ... 
Calc. nucleus orbit integrals (SHARK)       ... done

------------------------------------------------------------------------------
                           ORCA CP-SCF CALCULATION
------------------------------------------------------------------------------

Input orbitals are from        ... /home/rwth0701/scratch/cs681498/orcajob__30556111-NJz0/1226.gbw
Input Perturbation             ... /home/rwth0701/scratch/cs681498/orcajob__30556111-NJz0/1226.pin.tmp
Wavefunction output            ... /home/rwth0701/scratch/cs681498/orcajob__30556111-NJz0/1226.pout.tmp
Perturbation mode              ... Imaginary perturbation
Solver                         ... POPLE
Max. number of iterations      ... 64
Convergence tolerance          ... 1.000e-03
Integral handling              ... Direct
DFT GridXC                     ... 1
COSX GridX                     ... 1
COSX IntAccX                   ... 3.067
COSX Algorithm                 ... Auto
Number of perturbations        ... 3
Number of operators            ... 2
Orbital ranges used for CP-SCF:
 Operator 0:  Orbitals   0...  4  to   5... 72
 Operator 1:  Orbitals   0...  3  to   4... 72
Variables per perturbation     ... 616
DFT calculation                         ... on
XC functional terms                     ... off
Hybrid DFT                              ... on
   Exchange mixing (SCF)                ...  0.200
   Exchange mixing (CP-SCF)             ...  0.200
   GGA exch. scaling(SCF)               ...  0.720
   GGA exch. scaling (CP-SCF)           ...  0.720
   GGA corr. scaling (SCF)              ...  0.810
   GGA corr. scaling (CP-SCF)           ...  0.810

CP-SCF GRID
-----------

General Integration Accuracy     IntAcc      ... 3.467
Radial Grid Type                 RadialGrid  ... OptM3 with GC (2021)
Angular Grid (max. ang.)         AngularGrid ... 1 (Lebedev-50)
Angular grid pruning method      GridPruning ... 4 (adaptive)
Weight generation scheme         WeightScheme... Becke
Basis function cutoff            BFCut       ... 1.0000e-10
Integration weight cutoff        WCut        ... 1.0000e-14
Angular grids for H and He will be reduced by one unit
Partially contracted basis set               ... off
Rotationally invariant grid construction     ... off

Total number of grid points                  ...     2327
Total number of batches                      ...       38
Average number of points per batch           ...       61
Average number of grid points per atom       ...      582

CP-SCF GRIDX
------------

General Integration Accuracy     IntAcc      ... 3.067
Radial Grid Type                 RadialGrid  ... OptM3 with GC (2021)
Angular Grid (max. ang.)         AngularGrid ... 1 (Lebedev-50)
Angular grid pruning method      GridPruning ... 4 (adaptive)
Weight generation scheme         WeightScheme... Becke
Basis function cutoff            BFCut       ... 1.0000e-10
Integration weight cutoff        WCut        ... 1.0000e-14
Angular grids for H and He will be reduced by one unit
Partially contracted basis set               ... on
Rotationally invariant grid construction     ... off

Total number of grid points                  ...     1072
Total number of batches                      ...       20
Average number of points per batch           ...       53
Average number of grid points per atom       ...      268

Memory available               ... 967.6 MB
Memory needed per perturbation ...   0.4 MB
Perturbations treated per batch... 3
Number of batches              ... 1
     CP-SCF ITERATION   0:   1.0621e+00 (   0.1 sec   0/  3 done)
     CP-SCF ITERATION   1:   3.9061e-02 (   0.1 sec   0/  3 done)
     CP-SCF ITERATION   2:   2.8055e-03 (   0.1 sec   0/  3 done)
     CP-SCF ITERATION   3:   1.3233e-04 (   0.1 sec   3/  3 done)
                    *** THE CP-SCF HAS CONVERGED ***

Forming final perturbed densities           ... done
Transforming perturbed density to AO basis  ... done

 Raw HFC matrix (all values in MHz): 
 -----------------------------------
               111.6266            -110.4259              47.4756
              -110.4259             102.3085             -45.6181
                47.4756             -45.6181              15.6226

 A(FC)          76.6302              76.6302              76.6302
 A(SD)         -80.0153             -80.4336             160.4489
 A(ORB+DIA)     -0.1590              -0.1622              -0.0117    A(PC) =  -0.1110
 A(ORB)         -0.1595              -0.1626              -0.0116    A(PC) =  -0.1112
 A(DIA)          0.0004               0.0004              -0.0001    A(PC) =   0.0002
             ----------           ----------           ----------
 A(Tot)         -3.5441              -3.9656             237.0674    A(iso)=   76.5192
 Orientation: 
  X           0.7171845           -0.0835210            0.6918602
  Y           0.6770764            0.3185250           -0.6634074
  Z          -0.1649663            0.9442278            0.2849913

Notes:  (1) The A matrix conforms to the "SAI" spin Hamiltonian convention.
        (2) Tensor is right-handed.


--------------------------------------------------------------------------------
----------------------------------------------------------------------------
                           ORCA EULER ANGLE PROGRAM
----------------------------------------------------------------------------

Only g-tensor available        -->  using g-tensor as reference tensor

Reference tensor               ...  g

g-tensor ordering              ...  |g_min> --> |gx>
                                    |g_mid> --> |gy>
                                    |g_max> --> |gz>

A- and EFG-tensor ordering     ...  the axes |Ax>, |Qx>, |Ay>, etc. are assigned
                                    such that the Euler rotation is minimal. You
                                    can find the respective eigenvalues as Ax,
                                    EFGx, Ay, etc. in the tables below.
                                    The relation of |Ax>, |Ay>,  etc. to Amin, Amid, etc.
                                    (as printed in the ORCA EPR/NMR CALCULATION Output)
                                    is obtained in the detailed printout.

Euler rotation around          ...  z - y - z
   First rotation              -->  by alpha around z
   Second rotation             -->  by beta around y'
   Third rotation              -->  by gamma around z''
   Positive / Negative angle   -->  clockwise / counterclockwise rotation

Plot EFG-tensors                    (-)
Plot HFC-tensors                    (-)
Detailed Printout                   (-)

-------------------------------------------------------------------------
          Euler rotation of hyperfine tensor to g-tensor
-------------------------------------------------------------------------

-------------------------------------------------------------------
 Atom  |   Alpha    Beta    Gamma   |   Ax       Ay       Az 
       |          [degrees]         |           [MHz]         
-------------------------------------------------------------------
  1H      -89.4     31.5     89.3     -64.37  -103.97   -27.02
  2H      -89.5      5.6     89.9     -59.52   -23.25  -105.38
  3H       90.7     25.1    -90.7     -62.95  -106.32   -26.18
  0C       90.0     43.6    -90.0     237.07    -3.54    -3.97
-------------------------------------------------------------------


Maximum memory used throughout the entire EPRNMR-calculation: 67.6 MB

Timings for individual modules:

Sum of individual times         ...       18.109 sec (=   0.302 min)
GTO integral calculation        ...        3.125 sec (=   0.052 min)  17.3 %
Spin-Orbit-Coupling Matrices    ...        2.006 sec (=   0.033 min)  11.1 %
SCF iterations                  ...        6.934 sec (=   0.116 min)  38.3 %
EPR/NMR calculation             ...        6.044 sec (=   0.101 min)  33.4 %
                             ****ORCA TERMINATED NORMALLY****
TOTAL RUN TIME: 0 days 0 hours 0 minutes 20 seconds 493 msec
