4
# ORCA AIMD Position Step 0, t=0.00 fs, E_Pot=-39.82314971 Hartree, Unit is Angstrom
 C     12.6022894301     -0.6266926546     -7.1846322451
 H     12.3092559322     -1.4837953326     -6.4853588307
 H     13.1769622509      0.2068786471     -6.7587485437
 H     12.0584043831     -0.4595369654     -8.0963961825
4
# ORCA AIMD Position Step 1, t=0.50 fs, E_Pot=-39.82081281 Hartree, Unit is Angstrom
 C     12.6078870794     -0.6135269783     -7.1893090305
 H     12.2947809691     -1.4847077829     -6.4717868736
 H     13.1940282490      0.2229484659     -6.7767987842
 H     12.0502156990     -0.4878600103     -8.0872411135
4
# ORCA AIMD Position Step 2, t=1.00 fs, E_Pot=-39.81833656 Hartree, Unit is Angstrom
 C     12.6134067633     -0.6006916528     -7.1934866328
 H     12.2822082509     -1.4812864614     -6.4618980246
 H     13.2102534824      0.2375207023     -6.7954653764
 H     12.0415699731     -0.5158676576     -8.0794579335
4
# ORCA AIMD Position Step 3, t=1.50 fs, E_Pot=-39.81630193 Hartree, Unit is Angstrom
 C     12.6188374081     -0.5882655877     -7.1970830590
 H     12.2720332212     -1.4728276676     -6.4559891047
 H     13.2254518443      0.2504764847     -6.8148252304
 H     12.0322905084     -0.5432012366     -8.0736503520
4
# ORCA AIMD Position Step 4, t=2.00 fs, E_Pot=-39.81504318 Hartree, Unit is Angstrom
 C     12.6241547842     -0.5763032054     -7.2000668906
 H     12.2646396491     -1.4589465006     -6.4541134874
 H     13.2395066483      0.2617940846     -6.8349115247
 H     12.0223995427     -0.5695706349     -8.0701061451
4
# ORCA AIMD Position Step 5, t=2.50 fs, E_Pot=-39.81463817 Hartree, Unit is Angstrom
 C     12.6293180672     -0.5648422180     -7.2024547387
 H     12.2603081274     -1.4395187318     -6.4561225738
 H     13.2523773101      0.2715486315     -6.8557162297
 H     12.0121446679     -0.5947199939     -8.0687842925
4
# ORCA AIMD Position Step 6, t=3.00 fs, E_Pot=-39.81496011 Hartree, Unit is Angstrom
 C     12.6342716028     -0.5539085882     -7.2043044027
 H     12.2592173102     -1.4146490791     -6.4616872871
 H     13.2641006703      0.2799055911     -6.8771964794
 H     12.0019755650     -0.6183943204     -8.0693694924
4
# ORCA AIMD Position Step 7, t=3.50 fs, E_Pot=-39.81575065 Hartree, Unit is Angstrom
 C     12.6389513745     -0.5435172341     -7.2057062582
 H     12.2614366302     -1.3846686426     -6.4702974740
 H     13.2747828323      0.2871062269     -6.8992841084
 H     11.9924821707     -0.6403194782     -8.0713660991
4
# ORCA AIMD Position Step 8, t=4.00 fs, E_Pot=-39.81667506 Hartree, Unit is Angstrom
 C     12.6432946155     -0.5336690713     -7.2067734046
 H     12.2669058840     -1.3501455115     -6.4812447592
 H     13.2845919329      0.2934475780     -6.9219000086
 H     11.9843072803     -0.6602069647     -8.0742178445
4
# ORCA AIMD Position Step 9, t=4.50 fs, E_Pot=-39.81735013 Hartree, Unit is Angstrom
 C     12.6472503974     -0.5243436662     -7.2076375270
 H     12.2754062146     -1.3119334409     -6.4935783406
 H     13.2937372026      0.2992587174     -6.9449642389
 H     11.9780698380     -0.6777690906     -8.0773904116
4
# ORCA AIMD Position Step 10, t=5.00 fs, E_Pot=-39.81738659 Hartree, Unit is Angstrom
 C     12.6507894960     -0.5154910344     -7.2084464110
 H     12.2865270119     -1.2712105668     -6.5060571701
 H     13.3024459990      0.3048681536     -6.9684093173
 H     11.9743032382     -0.6927453651     -8.0804349057
4
# ORCA AIMD Position Step 11, t=5.50 fs, E_Pot=-39.81650567 Hartree, Unit is Angstrom
 C     12.6539117958     -0.5070249816     -7.2093642749
 H     12.2996417244     -1.2295017214     -6.5171092127
 H     13.3109379760      0.3105719710     -6.9921882493
 H     11.9734173024     -0.7049276129     -8.0830164178
4
# ORCA AIMD Position Step 12, t=6.00 fs, E_Pot=-39.81475885 Hartree, Unit is Angstrom
 C     12.6566488604     -0.4988230530     -7.2105699784
 H     12.3139169431     -1.1886297204     -6.5248422856
 H     13.3194039325      0.3166066747     -7.0162774143
 H     11.9756802028     -0.7141820549     -8.0849218719
4
# ORCA AIMD Position Step 13, t=6.50 fs, E_Pot=-39.81275311 Hartree, Unit is Angstrom
 C     12.6590596893     -0.4907379393     -7.2122477366
 H     12.3283938243     -1.1505489481     -6.5271690157
 H     13.3279814172      0.3231279383     -7.0406733929
 H     11.9812124650     -0.7204583834     -8.0860492019
4
# ORCA AIMD Position Step 14, t=7.00 fs, E_Pot=-39.81159879 Hartree, Unit is Angstrom
 C     12.6612170363     -0.4826246322     -7.2145625292
 H     12.3421575774     -1.1170062873     -6.5221126787
 H     13.3367479988      0.3302041145     -7.0653857380
 H     11.9899874396     -0.7237985513     -8.0864019740
4
# ORCA AIMD Position Step 15, t=7.50 fs, E_Pot=-39.81233874 Hartree, Unit is Angstrom
 C     12.6631881168     -0.4743770953     -7.2176217694
 H     12.3545702826     -1.0891074036     -6.5082773797
 H     13.3457182100      0.3378198591     -7.0904269789
 H     12.0018312178     -0.7243374024     -8.0860859515
4
# ORCA AIMD Position Step 16, t=8.00 fs, E_Pot=-39.81514046 Hartree, Unit is Angstrom
 C     12.6650179807     -0.4659581168     -7.2214359132
 H     12.3654525105     -1.0669692107     -6.4853180512
 H     13.3548565368      0.3458888786     -7.1158028680
 H     12.0164256504     -0.7223080398     -8.0853180680
4
# ORCA AIMD Position Step 17, t=8.50 fs, E_Pot=-39.81903416 Hartree, Unit is Angstrom
 C     12.6667272296     -0.4574032147     -7.2259009391
 H     12.3751130704     -1.0496991853     -6.4541540694
 H     13.3640798209      0.3542706574     -7.1415006885
 H     12.0333028314     -0.7180335646     -8.0844330639
4
# ORCA AIMD Position Step 18, t=9.00 fs, E_Pot=-39.82252628 Hartree, Unit is Angstrom
 C     12.6683235410     -0.4487948789     -7.2308154914
 H     12.3841787021     -1.0357098956     -6.4167677204
 H     13.3732716604      0.3627788945     -7.1674831960
 H     12.0518633241     -0.7119282974     -8.0838866629
4
# ORCA AIMD Position Step 19, t=9.50 fs, E_Pot=-39.82447823 Hartree, Unit is Angstrom
 C     12.6698189488     -0.4402259509     -7.2359211162
 H     12.3933663851     -1.0231846567     -6.3757383980
 H     13.3822886203      0.3711975031     -7.1936826781
 H     12.0713916352     -0.7044841162     -8.0842477035
4
# ORCA AIMD Position Step 20, t=10.00 fs, E_Pot=-39.82454446 Hartree, Unit is Angstrom
 C     12.6712405581     -0.4317703696     -7.2409479983
 H     12.4032943770     -1.0104622246     -6.3337400855
 H     13.3909740827      0.3792967759     -7.2199990094
 H     12.0911039930     -0.6962495145     -8.0861579548
4
# ORCA AIMD Position Step 21, t=10.50 fs, E_Pot=-39.82307849 Hartree, Unit is Angstrom
 C     12.6726308176     -0.4234709931     -7.2456501966
 H     12.4143953724     -0.9962351346     -6.2931946109
 H     13.3991722577      0.3868517423     -7.2463017292
 H     12.1102185081     -0.6877938518     -8.0902576178
4
# ORCA AIMD Position Step 22, t=11.00 fs, E_Pot=-39.82079966 Hartree, Unit is Angstrom
 C     12.6740395661     -0.4153416191     -7.2498279585
 H     12.4269090492     -0.9795916648     -6.2561081497
 H     13.4067427968      0.3936607423     -7.2724355200
 H     12.1280431162     -0.6796595153     -8.0970775299
4
# ORCA AIMD Position Step 23, t=11.50 fs, E_Pot=-39.81846580 Hartree, Unit is Angstrom
 C     12.6755129563     -0.4073762700     -7.2533400277
 H     12.4409138496     -0.9599730176     -6.2240384653
 H     13.4135738991      0.3995615954     -7.2982282141
 H     12.1440627974     -0.6723100788     -8.1069171302
4
# ORCA AIMD Position Step 24, t=12.00 fs, E_Pot=-39.81665149 Hartree, Unit is Angstrom
 C     12.6770840501     -0.3995596244     -7.2561086352
 H     12.4563680395     -0.9371035216     -6.1981277253
 H     13.4195920956      0.4044432911     -7.3235004038
 H     12.1580009033     -0.6660873425     -8.1197425111
4
# ORCA AIMD Position Step 25, t=12.50 fs, E_Pot=-39.81565631 Hartree, Unit is Angstrom
 C     12.6787680886     -0.3918748543     -7.2581180507
 H     12.4731446939     -0.9109247742     -6.1791542943
 H     13.4247681756      0.4082521197     -7.3480759917
 H     12.1698346337     -0.6611899964     -8.1351412165
4
# ORCA AIMD Position Step 26, t=13.00 fs, E_Pot=-39.81552559 Hartree, Unit is Angstrom
 C     12.6805634054     -0.3843073510     -7.2594077756
 H     12.4910564938     -0.8815486849     -6.1675744260
 H     13.4291173189      0.4109927665     -7.3717918953
 H     12.1797590905     -0.6576775832     -8.1523518183
4
# ORCA AIMD Position Step 27, t=13.50 fs, E_Pot=-39.81613040 Hartree, Unit is Angstrom
 C     12.6824563501     -0.3768447373     -7.2600617917
 H     12.5098702245     -0.8492272974     -6.1635441916
 H     13.4326966021      0.4127249951     -7.3945074050
 H     12.1881164178     -0.6554976450     -8.1703606141
4
# ORCA AIMD Position Step 28, t=14.00 fs, E_Pot=-39.81724047 Hartree, Unit is Angstrom
 C     12.6844279181     -0.3694743044     -7.2601975082
 H     12.5293136398     -0.8143387720     -6.1669140268
 H     13.4355999806      0.4135570880     -7.4161118624
 H     12.1953147507     -0.6545240876     -8.1880310649
4
# ORCA AIMD Position Step 29, t=14.50 fs, E_Pot=-39.81855288 Hartree, Unit is Angstrom
 C     12.6864599263     -0.3621792892     -7.2599586079
 H     12.5490783051     -0.7773874514     -6.1771914479
 H     13.4379502669      0.4136373401     -7.4365284528
 H     12.2017596447     -0.6545932560     -8.2042224725
4
# ORCA AIMD Position Step 30, t=15.00 fs, E_Pot=-39.81968703 Hartree, Unit is Angstrom
 C     12.6885398922     -0.3549348514     -7.2595096833
 H     12.5688193126     -0.7390066772     -6.1934819340
 H     13.4398944043      0.4131444990     -7.4557205561
 H     12.2078008060     -0.6555397504     -8.2179066413
4
# ORCA AIMD Position Step 31, t=15.50 fs, E_Pot=-39.82019520 Hartree, Unit is Angstrom
 C     12.6906633685     -0.3477051173     -7.2590402739
 H     12.5881596404     -0.6999701315     -6.2143937523
 H     13.4415949215      0.4122803766     -7.4736892350
 H     12.2137083722     -0.6572130992     -8.2282175489
4
# ORCA AIMD Position Step 32, t=16.00 fs, E_Pot=-39.81965852 Hartree, Unit is Angstrom
 C     12.6928347239     -0.3404417211     -7.2587675096
 H     12.6067006322     -0.6611832701     -6.2379652123
 H     13.4432230829      0.4112597293     -7.4904723137
 H     12.2196600457     -0.6594934252     -8.2344938452
4
# ORCA AIMD Position Step 33, t=16.50 fs, E_Pot=-39.81790858 Hartree, Unit is Angstrom
 C     12.6950659531     -0.3330853385     -7.2589357620
 H     12.6240439762     -0.6236457574     -6.2616516715
 H     13.4449536715      0.4103016347     -7.5061410605
 H     12.2257386694     -0.6623014341     -8.2362996435
4
# ORCA AIMD Position Step 34, t=17.00 fs, E_Pot=-39.81531294 Hartree, Unit is Angstrom
 C     12.6973741561     -0.3255715151     -7.2598053785
 H     12.6398281877     -0.5883675810     -6.2824632575
 H     13.4469570228      0.4096211302     -7.5207928864
 H     12.2319341090     -0.6656037039     -8.2334281194
4
# ORCA AIMD Position Step 35, t=17.50 fs, E_Pot=-39.81287437 Hartree, Unit is Angstrom
 C     12.6997782847     -0.3178411338     -7.2616197276
 H     12.6537716194     -0.5562272231     -6.2973509600
 H     13.4493946143      0.4094215308     -7.5345452633
 H     12.2381436409     -0.6694217285     -8.2259138632
4
# ORCA AIMD Position Step 36, t=18.00 fs, E_Pot=-39.81182779 Hartree, Unit is Angstrom
 C     12.7022967371     -0.3098528783     -7.2645515714
 H     12.6657084460     -0.5278048804     -6.3038429607
 H     13.4524128508      0.4098864064     -7.5475279589
 H     12.2441708102     -0.6738422325     -8.2140434435
4
# ORCA AIMD Position Step 37, t=18.50 fs, E_Pot=-39.81281271 Hartree, Unit is Angstrom
 C     12.7049474937     -0.3015916500     -7.2686453896
 H     12.6756005283     -0.5032651625     -6.3007316854
 H     13.4561335309      0.4111726094     -7.5598741370
 H     12.2497212944     -0.6790276831     -8.1983645803
4
# ORCA AIMD Position Step 38, t=19.00 fs, E_Pot=-39.81533610 Hartree, Unit is Angstrom
 C     12.7077507300     -0.2930664870     -7.2737865963
 H     12.6835063340     -0.4823479571     -6.2884579849
 H     13.4606464998      0.4133930293     -7.5717127383
 H     12.2544099198     -0.6852337676     -8.1796760875
4
# ORCA AIMD Position Step 39, t=19.50 fs, E_Pot=-39.81813589 Hartree, Unit is Angstrom
 C     12.7107322974     -0.2842992576     -7.2797193930
 H     12.6895508449     -0.4645010853     -6.2689370511
 H     13.4659932189      0.4166119318     -7.5831593544
 H     12.2577653710     -0.6928076104     -8.1589980865
4
# ORCA AIMD Position Step 40, t=20.00 fs, E_Pot=-39.82008003 Hartree, Unit is Angstrom
 C     12.7139241513     -0.2753105251     -7.2861068319
 H     12.6938891298     -0.4490493599     -6.2449467102
 H     13.4721568670      0.4208303137     -7.5943098609
 H     12.2592712738     -0.7021729505     -8.1374741873
4
# ORCA AIMD Position Step 41, t=20.50 fs, E_Pot=-39.82076515 Hartree, Unit is Angstrom
 C     12.7173614446     -0.2661114590     -7.2925978146
 H     12.6966911399     -0.4353361800     -6.2194592665
 H     13.4790551978      0.4259836950     -7.6052399075
 H     12.2584233037     -0.7137826323     -8.1162416881
4
# ORCA AIMD Position Step 42, t=21.00 fs, E_Pot=-39.82049151 Hartree, Unit is Angstrom
 C     12.7210748320     -0.2567053488     -7.2988836720
 H     12.6981365733     -0.4227957080     -6.1951484061
 H     13.4865433794      0.4319449242     -7.6160069329
 H     12.2548234972     -0.7280306559     -8.0962489588
4
# ORCA AIMD Position Step 43, t=21.50 fs, E_Pot=-39.81986146 Hartree, Unit is Angstrom
 C     12.7250808361     -0.2470966824     -7.3047315929
 H     12.6984133986     -0.4109704045     -6.1741590837
 H     13.4944254214      0.4385353853     -7.6266552045
 H     12.2482852834     -0.7451369995     -8.0780830995
4
# ORCA AIMD Position Step 44, t=22.00 fs, E_Pot=-39.81937419 Hartree, Unit is Angstrom
 C     12.7293733953     -0.2373026100     -7.3099964159
 H     12.6977160075     -0.3995000282     -6.1580644753
 H     13.5024721859      0.4455416956     -7.6372214842
 H     12.2389180630     -0.7650382632     -8.0618671050
4
# ORCA AIMD Position Step 45, t=22.50 fs, E_Pot=-39.81923750 Hartree, Unit is Angstrom
 C     12.7339199415     -0.2273611095     -7.3146149652
 H     12.6962416242     -0.3881015184     -6.1479161031
 H     13.5104421656      0.4527341189     -7.6477397010
 H     12.2271566626     -0.7873287573     -8.0472720492
4
# ORCA AIMD Position Step 46, t=23.00 fs, E_Pot=-39.81941432 Hartree, Unit is Angstrom
 C     12.7386638719     -0.2173324641     -7.3185882001
 H     12.6941874616     -0.3765518036     -6.1443241372
 H     13.5181009943      0.4598854282     -7.6582450100
 H     12.2137151454     -0.8112791316     -8.0336445136
4
# ORCA AIMD Position Step 47, t=23.50 fs, E_Pot=-39.81977443 Hartree, Unit is Angstrom
 C     12.7435318143     -0.2072940645     -7.3219604468
 H     12.6917457845     -0.3646744775     -6.1475229499
 H     13.5252371165      0.4667849683     -7.6687754581
 H     12.1994895314     -0.8359261329     -8.0201860079
4
# ORCA AIMD Position Step 48, t=24.00 fs, E_Pot=-39.82020974 Hartree, Unit is Angstrom
 C     12.7484430061     -0.1973315688     -7.3248016605
 H     12.6890996503     -0.3523330982     -6.1574103206
 H     13.5316728634      0.4732498379     -7.6793727901
 H     12.1854392220     -0.8601964206     -8.0061241490
4
# ORCA AIMD Position Step 49, t=24.50 fs, E_Pot=-39.82065434 Hartree, Unit is Angstrom
 C     12.7533181319     -0.1875292924     -7.3271960532
 H     12.6864158122     -0.3394269430     -6.1735613329
 H     13.5372705332      0.4791303646     -7.6900828047
 H     12.1724825865     -0.8830311563     -7.9908345471
4
# ORCA AIMD Position Step 50, t=25.00 fs, E_Pot=-39.82103538 Hartree, Unit is Angstrom
 C     12.7580857811     -0.1779628165     -7.3292388236
 H     12.6838382386     -0.3258923358     -6.1952113199
 H     13.5419344661      0.4843135324     -7.7009546256
 H     12.1614242921     -0.9034759726     -7.9738983900
4
# ORCA AIMD Position Step 51, t=25.50 fs, E_Pot=-39.82121837 Hartree, Unit is Angstrom
 C     12.7626864580     -0.1686942406     -7.3310393061
 H     12.6814798100     -0.3117068436     -6.2212125856
 H     13.5456098176      0.4887235825     -7.7120387036
 H     12.1529170363     -0.9207333547     -7.9551106858
4
# ORCA AIMD Position Step 52, t=26.00 fs, E_Pot=-39.82100216 Hartree, Unit is Angstrom
 C     12.7670752647     -0.1597689297     -7.3327239321
 H     12.6794098897     -0.2968878904     -6.2500062633
 H     13.5482822414      0.4923207831     -7.7233882919
 H     12.1474423912     -0.9342010695     -7.9344718334
4
# ORCA AIMD Position Step 53, t=26.50 fs, E_Pot=-39.82019848 Hartree, Unit is Angstrom
 C     12.7712228634     -0.1512150596     -7.3344422851
 H     12.6776450731     -0.2814943513     -6.2795854613
 H     13.5499760391      0.4951018158     -7.7350566522
 H     12.1453105402     -0.9434761639     -7.9121551977
4
# ORCA AIMD Position Step 54, t=27.00 fs, E_Pot=-39.81879256 Hartree, Unit is Angstrom
 C     12.7751159925     -0.1430439737     -7.3363643489
 H     12.6761432757     -0.2656119722     -6.3075534963
 H     13.5507512245      0.4970966001     -7.7470968343
 H     12.1466631847     -0.9483619705     -7.8884816188
4
# ORCA AIMD Position Step 55, t=27.50 fs, E_Pot=-39.81710205 Hartree, Unit is Angstrom
 C     12.7787566333     -0.1352521224     -7.3386669828
 H     12.6748109286     -0.2493222975     -6.3313066044
 H     13.5507033261      0.4983672296     -7.7595622841
 H     12.1514766843     -0.9488749006     -7.8638966684
4
# ORCA AIMD Position Step 56, t=28.00 fs, E_Pot=-39.81576790 Hartree, Unit is Angstrom
 C     12.7821599164     -0.1278239322     -7.3415061897
 H     12.6735355996     -0.2326587158     -6.3483839556
 H     13.5499579902      0.4990039717     -7.7725057969
 H     12.1595598437     -0.9452502393     -7.8389517768
4
# ORCA AIMD Position Step 57, t=28.50 fs, E_Pot=-39.81544159 Hartree, Unit is Angstrom
 C     12.7853504377     -0.1207343511     -7.3449775319
 H     12.6722394019     -0.2155562836     -6.3569532198
 H     13.5486678182      0.4991219238     -7.7859800917
 H     12.1705474764     -0.9379589456     -7.8142899945
4
# ORCA AIMD Position Step 58, t=29.00 fs, E_Pot=-39.81630597 Hartree, Unit is Angstrom
 C     12.7883578831     -0.1139495006     -7.3490789787
 H     12.6709372872     -0.1978240273     -6.3562689920
 H     13.5470106743      0.4988586223     -7.8000388883
 H     12.1838957730     -0.9277256505     -7.7906294170
4
# ORCA AIMD Position Step 59, t=29.50 fs, E_Pot=-39.81785451 Hartree, Unit is Angstrom
 C     12.7912152479     -0.1074231944     -7.3536964012
 H     12.6697718695     -0.1791708961     -6.3468738345
 H     13.5451774030      0.4983646230     -7.8147322417
 H     12.1988807917     -0.9155352533     -7.7687396661
4
# ORCA AIMD Position Step 60, t=30.00 fs, E_Pot=-39.81919542 Hartree, Unit is Angstrom
 C     12.7939598823     -0.1010914854     -7.3586211073
 H     12.6689983258     -0.1592759624     -6.3304331041
 H     13.5433568510      0.4977919120     -7.8300991922
 H     12.2146159944     -0.9026164775     -7.7494053301
4
# ORCA AIMD Position Step 61, t=30.50 fs, E_Pot=-39.81963658 Hartree, Unit is Angstrom
 C     12.7966355550     -0.0948696248     -7.3635909897
 H     12.6689303815     -0.1378709701     -6.3093048952
 H     13.5417190409      0.4972811930     -7.8461593422
 H     12.2300985817     -0.8903828614     -7.7333739094
4
# ORCA AIMD Position Step 62, t=31.00 fs, E_Pot=-39.81907573 Hartree, Unit is Angstrom
 C     12.7992905065     -0.0886583944     -7.3683401184
 H     12.6698700125     -0.1147937597     -6.2860392291
 H     13.5403948083      0.4969457176     -7.8629009597
 H     12.2443234817     -0.8802873781     -7.7212774648
4
# ORCA AIMD Position Step 63, t=31.50 fs, E_Pot=-39.81796632 Hartree, Unit is Angstrom
 C     12.8019709392     -0.0823579962     -7.3726354707
 H     12.6720661871     -0.0900107078     -6.2630246832
 H     13.5394629255      0.4968621879     -7.8802751068
 H     12.2564150956     -0.8736249618     -7.7135545260
4
# ORCA AIMD Position Step 64, t=32.00 fs, E_Pot=-39.81696895 Hartree, Unit is Angstrom
 C     12.8047098526     -0.0758890177     -7.3763011015
 H     12.6756903642     -0.0636038426     -6.2422844047
 H     13.5389418240      0.4970642064     -7.8981909458
 H     12.2657930737     -0.8712886888     -7.7103711436
4
# ORCA AIMD Position Step 65, t=32.50 fs, E_Pot=-39.81655900 Hartree, Unit is Angstrom
 C     12.8075172891     -0.0692109520     -7.3792272752
 H     12.6808345915     -0.0357447021     -6.2254117489
 H     13.5387882182      0.4975412505     -7.9165152177
 H     12.2722917543     -0.8735740478     -7.7115769458
4
# ORCA AIMD Position Step 66, t=33.00 fs, E_Pot=-39.81683711 Hartree, Unit is Angstrom
 C     12.8103771512     -0.0623305430     -7.3813683769
 H     12.6875198515     -0.0066654905     -6.2135828804
 H     13.5389014022      0.4982419915     -7.9350751048
 H     12.2761853591     -0.8801116889     -7.7167142961
4
# ORCA AIMD Position Step 67, t=33.50 fs, E_Pot=-39.81760856 Hartree, Unit is Angstrom
 C     12.8132525330     -0.0552966957     -7.3827339691
 H     12.6957081692      0.0233643521     -6.2075952609
 H     13.5391314171      0.4990807777     -7.9536631855
 H     12.2781041112     -0.8899581953     -7.7250812291
4
# ORCA AIMD Position Step 68, t=34.00 fs, E_Pot=-39.81859646 Hartree, Unit is Angstrom
 C     12.8160966329     -0.0481855272     -7.3833767615
 H     12.7053122256      0.0540581934     -6.2079074031
 H     13.5392913013      0.4999470885     -7.9720458248
 H     12.2788823228     -0.9018039660     -7.7358265712
4
# ORCA AIMD Position Step 69, t=34.50 fs, E_Pot=-39.81960345 Hartree, Unit is Angstrom
 C     12.8188643421     -0.0410828848     -7.3833815038
 H     12.7162021569      0.0851290780     -6.2146630534
 H     13.5391721783      0.5007171235     -7.9899741378
 H     12.2793984748     -0.9142101976     -7.7480471431
4
# ORCA AIMD Position Step 70, t=35.00 fs, E_Pot=-39.82054323 Hartree, Unit is Angstrom
 C     12.8215207537     -0.0340704402     -7.3828570453
 H     12.7282100641      0.1163060714     -6.2276952546
 H     13.5385603298      0.5012666301     -8.0071973301
 H     12.2804522498     -0.9258038847     -7.7608650711
4
# ORCA AIMD Position Step 71, t=35.50 fs, E_Pot=-39.82137932 Hartree, Unit is Angstrom
 C     12.8240452808     -0.0272181435     -7.3819322566
 H     12.7411325695      0.1473542036     -6.2465108858
 H     13.5372552030      0.5014841647     -8.0234780442
 H     12.2826948628     -0.9354009926     -7.7734766785
4
# ORCA AIMD Position Step 72, t=36.00 fs, E_Pot=-39.82204828 Hartree, Unit is Angstrom
 C     12.8264322344     -0.0205822894     -7.3807549445
 H     12.7547346093      0.1780986047     -6.2702624332
 H     13.5350864601      0.5012828945     -8.0386082552
 H     12.2866012402     -0.9420653839     -7.7851779156
4
# ORCA AIMD Position Step 73, t=36.50 fs, E_Pot=-39.82242813 Hartree, Unit is Angstrom
 C     12.8286887822     -0.0142080920     -7.3794930923
 H     12.7687564605      0.2084551138     -6.2977117875
 H     13.5319296978      0.5006107310     -8.0524239504
 H     12.2924715610     -0.9451187514     -7.7953712231
4
# ORCA AIMD Position Step 74, t=37.00 fs, E_Pot=-39.82238022 Hartree, Unit is Angstrom
 C     12.8308325107     -0.0081325856     -7.3783320797
 H     12.7829222042      0.2384624851     -6.3272424025
 H     13.5277174356      0.4994568567     -8.0648208181
 H     12.3004409196     -0.9441445975     -7.8035707546
4
# ORCA AIMD Position Step 75, t=37.50 fs, E_Pot=-39.82185760 Hartree, Unit is Angstrom
 C     12.8328875789     -0.0023889912     -7.3774710823
 H     12.7969576861      0.2683100809     -6.3568912124
 H     13.5224524276      0.4978591506     -8.0757674323
 H     12.3104940302     -0.9389710980     -7.8093998840
4
# ORCA AIMD Position Step 76, t=38.00 fs, E_Pot=-39.82102019 Hartree, Unit is Angstrom
 C     12.8348818924      0.0029931230     -7.3771081827
 H     12.8106099610      0.2983379574     -6.3845105040
 H     13.5162127864      0.4959063041     -8.0853152695
 H     12.3224744323     -0.9296712385     -7.8125963041
4
# ORCA AIMD Position Step 77, t=38.50 fs, E_Pot=-39.82024298 Hartree, Unit is Angstrom
 C     12.8368449119      0.0079925698     -7.3774165227
 H     12.8236690937      0.3289853458     -6.4080411235
 H     13.5091531026      0.4937364309     -8.0936017385
 H     12.3360876254     -0.9165662072     -7.8130197537
4
# ORCA AIMD Position Step 78, t=39.00 fs, E_Pot=-39.81992310 Hartree, Unit is Angstrom
 C     12.8388074052      0.0126081533     -7.3785119744
 H     12.8359776258      0.3606762329     -6.4258818712
 H     13.5015016169      0.4915344148     -8.1008507255
 H     12.3508973120     -0.9002468274     -7.8106674096
4
# ORCA AIMD Position Step 79, t=39.50 fs, E_Pot=-39.82016230 Hartree, Unit is Angstrom
 C     12.8408033329      0.0168747591     -7.3804234926
 H     12.8474249060      0.3936603450     -6.4372349446
 H     13.4935500269      0.4895246311     -8.1073639058
 H     12.3663187517     -0.8815992166     -7.8056906324
4
# ORCA AIMD Position Step 80, t=40.00 fs, E_Pot=-39.82059990 Hartree, Unit is Angstrom
 C     12.8428732280      0.0208778884     -7.3830794766
 H     12.8579283119      0.4278711989     -6.4422753627
 H     13.4856354715      0.4879583753     -8.1135023546
 H     12.3816152640     -0.8618236756     -7.7984067103
4
# ORCA AIMD Position Step 81, t=40.50 fs, E_Pot=-39.82061714 Hartree, Unit is Angstrom
 C     12.8450671277      0.0247579243     -7.3863192424
 H     12.8674103670      0.4628787708     -6.4420516461
 H     13.4781128439      0.4870962554     -8.1196580407
 H     12.3959138495     -0.8424207697     -7.7892902161
4
# ORCA AIMD Position Step 82, t=41.00 fs, E_Pot=-39.81979558 Hartree, Unit is Angstrom
 C     12.8474443078      0.0287002693     -7.3899253079
 H     12.8757891850      0.4979519111     -6.4381784537
 H     13.4713215175      0.4871842545     -8.1262178770
 H     12.4082512652     -0.8251122599     -7.7789317538
4
# ORCA AIMD Position Step 83, t=41.50 fs, E_Pot=-39.81826622 Hartree, Unit is Angstrom
 C     12.8500680428      0.0329111056     -7.3936650227
 H     12.8829818867      0.5321963143     -6.4324675795
 H     13.4655490608      0.4884263654     -8.1335247837
 H     12.4176695314     -0.8116625148     -7.7679498059
4
# ORCA AIMD Position Step 84, t=42.00 fs, E_Pot=-39.81667170 Hartree, Unit is Angstrom
 C     12.8529952908      0.0375841384     -7.3973287402
 H     12.8889160971      0.5646978933     -6.4266351805
 H     13.4609991067      0.4909572159     -8.1418423737
 H     12.4233596712     -0.8035976318     -7.7568639451
4
# ORCA AIMD Position Step 85, t=42.50 fs, E_Pot=-39.81575601 Hartree, Unit is Angstrom
 C     12.8562635431      0.0428633363     -7.4007602415
 H     12.8935401052      0.5946462873     -6.4221126221
 H     13.4577639210      0.4948211984     -8.1513241972
 H     12.4248357102     -0.8018637055     -7.7459522650
4
# ORCA AIMD Position Step 86, t=43.00 fs, E_Pot=-39.81589352 Hartree, Unit is Angstrom
 C     12.8598805425      0.0488185864     -7.4038683346
 H     12.8968299699      0.6213864150     -6.4199942675
 H     13.4558165968      0.4999602927     -8.1620006720
 H     12.4220577872     -0.8065762159     -7.7351784819
4
# ORCA AIMD Position Step 87, t=43.50 fs, E_Pot=-39.81691116 Hartree, Unit is Angstrom
 C     12.8638210676      0.0554377848     -7.4066261376
 H     12.8987932742      0.6444470129     -6.4210285460
 H     13.4550165989      0.5062147579     -8.1737761564
 H     12.4154610649     -0.8169554253     -7.7242122042
4
# ORCA AIMD Position Step 88, t=44.00 fs, E_Pot=-39.81829511 Hartree, Unit is Angstrom
 C     12.8680333393      0.0626398816     -7.4090572158
 H     12.8994617016      0.6635488079     -6.4256477820
 H     13.4551248111      0.5133401929     -8.1864474370
 H     12.4058717320     -0.8315075405     -7.7125456270
4
# ORCA AIMD Position Step 89, t=44.50 fs, E_Pot=-39.81954068 Hartree, Unit is Angstrom
 C     12.8724502068      0.0703002630     -7.4112187600
 H     12.8988922690      0.6785923010     -6.4339983020
 H     13.4558357844      0.5210276769     -8.1997239787
 H     12.3943401739     -0.8483355348     -7.6996433944
4
# ORCA AIMD Position Step 90, t=45.00 fs, E_Pot=-39.82036843 Hartree, Unit is Angstrom
 C     12.8770011054      0.0782760646     -7.4131866697
 H     12.8971605827      0.6896551616     -6.4459639267
 H     13.4568088108      0.5289332461     -8.2132610437
 H     12.3819740841     -0.8654678000     -7.6850634972
4
# ORCA AIMD Position Step 91, t=45.50 fs, E_Pot=-39.82073425 Hartree, Unit is Angstrom
 C     12.8816204847      0.0864239255     -7.4150464369
 H     12.8943560603      0.6969939453     -6.4611754126
 H     13.4577002507      0.5367070602     -8.2266940111
 H     12.3698104720     -0.8811004178     -7.6685220277
4
# ORCA AIMD Position Step 92, t=46.00 fs, E_Pot=-39.82072726 Hartree, Unit is Angstrom
 C     12.8862520479      0.0946085571     -7.4168892439
 H     12.8905768343      0.7010487191     -6.4790125400
 H     13.4581912452      0.5440188537     -8.2396698355
 H     12.3587424655     -0.8937291898     -7.6499062058
4
# ORCA AIMD Position Step 93, t=46.50 fs, E_Pot=-39.82046972 Hartree, Unit is Angstrom
 C     12.8908498363      0.1027045029     -7.4188109933
 H     12.8859239068      0.7024485193     -6.4986049858
 H     13.4580094046      0.5505785415     -8.2518745959
 H     12.3494904168     -0.9021967590     -7.6292576162
4
# ORCA AIMD Position Step 94, t=47.00 fs, E_Pot=-39.82007863 Hartree, Unit is Angstrom
 C     12.8953774612      0.1105943613     -7.4209123384
 H     12.8804954422      0.7020096695     -6.5188427462