Job execution start: Tue Oct 25 00:43:12 CEST 2022
Shared library path: /home/cs681498/orca:/opt/MPI/openmpi-4.1.1/linux/gcc_4.8.5/lib:/opt/MPI/openmpi-4.1.1/linux/gcc_4.8.5/lib/lib32
Slurm Job ID is: 30556556
Slurm Job name is: 17932
ncm0207

                                 *****************
                                 * O   R   C   A *
                                 *****************

                                            #,                                       
                                            ###                                      
                                            ####                                     
                                            #####                                    
                                            ######                                   
                                           ########,                                 
                                     ,,################,,,,,                         
                               ,,#################################,,                 
                          ,,##########################################,,             
                       ,#########################################, ''#####,          
                    ,#############################################,,   '####,        
                  ,##################################################,,,,####,       
                ,###########''''           ''''###############################       
              ,#####''   ,,,,##########,,,,          '''####'''          '####       
            ,##' ,,,,###########################,,,                        '##       
           ' ,,###''''                  '''############,,,                           
         ,,##''                                '''############,,,,        ,,,,,,###''
      ,#''                                            '''#######################'''  
     '                                                          ''''####''''         
             ,#######,   #######,   ,#######,      ##                                
            ,#'     '#,  ##    ##  ,#'     '#,    #''#        ######   ,####,        
            ##       ##  ##   ,#'  ##            #'  '#       #        #'  '#        
            ##       ##  #######   ##           ,######,      #####,   #    #        
            '#,     ,#'  ##    ##  '#,     ,#' ,#      #,         ##   #,  ,#        
             '#######'   ##     ##  '#######'  #'      '#     #####' # '####'        



                  #######################################################
                  #                        -***-                        #
                  #          Department of theory and spectroscopy      #
                  #    Directorship and core code : Frank Neese         #
                  #        Max Planck Institute fuer Kohlenforschung    #
                  #                Kaiser Wilhelm Platz 1               #
                  #                 D-45470 Muelheim/Ruhr               #
                  #                      Germany                        #
                  #                                                     #
                  #                  All rights reserved                #
                  #                        -***-                        #
                  #######################################################


                         Program Version 5.0.3 -  RELEASE  -


 With contributions from (in alphabetic order):
   Daniel Aravena         : Magnetic Suceptibility
   Michael Atanasov       : Ab Initio Ligand Field Theory (pilot matlab implementation)
   Alexander A. Auer      : GIAO ZORA, VPT2 properties, NMR spectrum
   Ute Becker             : Parallelization
   Giovanni Bistoni       : ED, misc. LED, open-shell LED, HFLD
   Martin Brehm           : Molecular dynamics
   Dmytro Bykov           : SCF Hessian
   Vijay G. Chilkuri      : MRCI spin determinant printing, contributions to CSF-ICE
   Dipayan Datta          : RHF DLPNO-CCSD density
   Achintya Kumar Dutta   : EOM-CC, STEOM-CC
   Dmitry Ganyushin       : Spin-Orbit,Spin-Spin,Magnetic field MRCI
   Miquel Garcia          : C-PCM and meta-GGA Hessian, CC/C-PCM, Gaussian charge scheme
   Yang Guo               : DLPNO-NEVPT2, F12-NEVPT2, CIM, IAO-localization
   Andreas Hansen         : Spin unrestricted coupled pair/coupled cluster methods
   Benjamin Helmich-Paris : MC-RPA, TRAH-SCF, COSX integrals
   Lee Huntington         : MR-EOM, pCC
   Robert Izsak           : Overlap fitted RIJCOSX, COSX-SCS-MP3, EOM
   Marcus Kettner         : VPT2
   Christian Kollmar      : KDIIS, OOCD, Brueckner-CCSD(T), CCSD density, CASPT2, CASPT2-K
   Simone Kossmann        : Meta GGA functionals, TD-DFT gradient, OOMP2, MP2 Hessian
   Martin Krupicka        : Initial AUTO-CI
   Lucas Lang             : DCDCAS
   Marvin Lechner         : AUTO-CI (C++ implementation), FIC-MRCC
   Dagmar Lenk            : GEPOL surface, SMD
   Dimitrios Liakos       : Extrapolation schemes; Compound Job, initial MDCI parallelization
   Dimitrios Manganas     : Further ROCIS development; embedding schemes
   Dimitrios Pantazis     : SARC Basis sets
   Anastasios Papadopoulos: AUTO-CI, single reference methods and gradients
   Taras Petrenko         : DFT Hessian,TD-DFT gradient, ASA, ECA, R-Raman, ABS, FL, XAS/XES, NRVS
   Peter Pinski           : DLPNO-MP2, DLPNO-MP2 Gradient
   Christoph Reimann      : Effective Core Potentials
   Marius Retegan         : Local ZFS, SOC
   Christoph Riplinger    : Optimizer, TS searches, QM/MM, DLPNO-CCSD(T), (RO)-DLPNO pert. Triples
   Tobias Risthaus        : Range-separated hybrids, TD-DFT gradient, RPA, STAB
   Michael Roemelt        : Original ROCIS implementation
   Masaaki Saitow         : Open-shell DLPNO-CCSD energy and density
   Barbara Sandhoefer     : DKH picture change effects
   Avijit Sen             : IP-ROCIS
   Kantharuban Sivalingam : CASSCF convergence, NEVPT2, FIC-MRCI
   Bernardo de Souza      : ESD, SOC TD-DFT
   Georgi Stoychev        : AutoAux, RI-MP2 NMR, DLPNO-MP2 response
   Willem Van den Heuvel  : Paramagnetic NMR
   Boris Wezisla          : Elementary symmetry handling
   Frank Wennmohs         : Technical directorship


 We gratefully acknowledge several colleagues who have allowed us to
 interface, adapt or use parts of their codes:
   Stefan Grimme, W. Hujo, H. Kruse, P. Pracht,  : VdW corrections, initial TS optimization,
                  C. Bannwarth, S. Ehlert          DFT functionals, gCP, sTDA/sTD-DF
   Ed Valeev, F. Pavosevic, A. Kumar             : LibInt (2-el integral package), F12 methods
   Garnet Chan, S. Sharma, J. Yang, R. Olivares  : DMRG
   Ulf Ekstrom                                   : XCFun DFT Library
   Mihaly Kallay                                 : mrcc  (arbitrary order and MRCC methods)
   Jiri Pittner, Ondrej Demel                    : Mk-CCSD
   Frank Weinhold                                : gennbo (NPA and NBO analysis)
   Christopher J. Cramer and Donald G. Truhlar   : smd solvation model
   Lars Goerigk                                  : TD-DFT with DH, B97 family of functionals
   V. Asgeirsson, H. Jonsson                     : NEB implementation
   FAccTs GmbH                                   : IRC, NEB, NEB-TS, DLPNO-Multilevel, CI-OPT
                                                   MM, QMMM, 2- and 3-layer-ONIOM, Crystal-QMMM,
                                                   LR-CPCM, SF, NACMEs, symmetry and pop. for TD-DFT,
                                                   nearIR, NL-DFT gradient (VV10), updates on ESD,
                                                   ML-optimized integration grids
   S Lehtola, MJT Oliveira, MAL Marques          : LibXC Library
   Liviu Ungur et al                             : ANISO software


 Your calculation uses the libint2 library for the computation of 2-el integrals
 For citations please refer to: http://libint.valeyev.net

 Your ORCA version has been built with support for libXC version: 5.1.0
 For citations please refer to: https://tddft.org/programs/libxc/

 This ORCA versions uses:
   CBLAS   interface :  Fast vector & matrix operations
   LAPACKE interface :  Fast linear algebra routines
   SCALAPACK package :  Parallel linear algebra routines
   Shared memory     :  Shared parallel matrices
   BLAS/LAPACK       :  OpenBLAS 0.3.15  USE64BITINT DYNAMIC_ARCH NO_AFFINITY SkylakeX SINGLE_THREADED
        Core in use  :  SkylakeX
   Copyright (c) 2011-2014, The OpenBLAS Project


================================================================================

----- Orbital basis set information -----
Your calculation utilizes the basis: EPR-III
   V. Barone, in Recent Advances in Density Functional Methods, Part 1 (ed. D. P. Chong), World Scientific, Singapore, 1995, p. 287.
   N. Rega, M. Cossi and V. Barone, J. Chem. Phys. 105, 11060 (1996).

----- AuxJ basis set information -----
Your calculation utilizes the AutoAux generation procedure.
  G. L. Stoychev, A. A. Auer, F. Neese, J. Chem. Theory Comput. 13, 554 (2017)

----- AuxC basis set information -----
Your calculation utilizes the AutoAux generation procedure.
  G. L. Stoychev, A. A. Auer, F. Neese, J. Chem. Theory Comput. 13, 554 (2017)

----- AuxJK basis set information -----
Your calculation utilizes the AutoAux generation procedure.
  G. L. Stoychev, A. A. Auer, F. Neese, J. Chem. Theory Comput. 13, 554 (2017)

================================================================================
                                        WARNINGS
                       Please study these warnings very carefully!
================================================================================


WARNING: your system is open-shell and RHF/RKS was chosen
  ===> : WILL SWITCH to UHF/UKS


INFO   : the flag for use of the SHARK integral package has been found!

================================================================================
                                       INPUT FILE
================================================================================
NAME = /home/rwth0701/scratch/cs681498/orcajob__30556556-AIFm/17932.inp
|  1> !B3LYP EPR-III Autoaux
|  2> !PAL4
|  3> 
|  4> * xyz 0 2
|  5>  C    -84.2941827609   -111.6662776862    -31.4105568451
|  6>  H    -84.2795818815   -112.7352580823    -31.4964612196
|  7>  H    -83.3311770373   -111.1782692201    -31.3164691708
|  8>  H    -85.2043192455   -111.0745116957    -31.3938043400
|  9> *
| 10> 
| 11> %EPRNMR
| 12>         GTENSOR   TRUE
| 13>         NUCLEI    = ALL H {AISO, ADIP, AORB}
| 14>         NUCLEI    = ALL C {AISO, ADIP, AORB}
| 15> END
| 16> 
| 17> 
| 18>                          ****END OF INPUT****
================================================================================

                       ****************************
                       * Single Point Calculation *
                       ****************************

---------------------------------
CARTESIAN COORDINATES (ANGSTROEM)
---------------------------------
  C    -84.294183  -111.666278  -31.410557
  H    -84.279582  -112.735258  -31.496461
  H    -83.331177  -111.178269  -31.316469
  H    -85.204319  -111.074512  -31.393804

----------------------------
CARTESIAN COORDINATES (A.U.)
----------------------------
  NO LB      ZA    FRAG     MASS         X           Y           Z
   0 C     6.0000    0    12.011  -159.292920  -211.018683  -59.357350
   1 H     1.0000    0     1.008  -159.265328  -213.038763  -59.519686
   2 H     1.0000    0     1.008  -157.473103  -210.096481  -59.179550
   3 H     1.0000    0     1.008  -161.012829  -209.900408  -59.325693

--------------------------------
INTERNAL COORDINATES (ANGSTROEM)
--------------------------------
 C      0   0   0     0.000000000000     0.00000000     0.00000000
 H      1   0   0     1.072525913199     0.00000000     0.00000000
 H      1   2   0     1.083690351127   116.33948028     0.00000000
 H      1   2   3     1.085732957287   123.77163394   181.27891068

---------------------------
INTERNAL COORDINATES (A.U.)
---------------------------
 C      0   0   0     0.000000000000     0.00000000     0.00000000
 H      1   0   0     2.026780247480     0.00000000     0.00000000
 H      1   2   0     2.047877977604   116.33948028     0.00000000
 H      1   2   3     2.051737943845   123.77163394   181.27891068

---------------------
BASIS SET INFORMATION
---------------------
There are 2 groups of distinct atoms

 Group   1 Type C   : 12s8p2d1f contracted to 8s5p2d1f pattern {51111111/41111/11/1}
 Group   2 Type H   : 7s2p contracted to 5s2p pattern {31111/11}

Atom   0C    basis set group =>   1
Atom   1H    basis set group =>   2
Atom   2H    basis set group =>   2
Atom   3H    basis set group =>   2
---------------------------------
AUXILIARY/J BASIS SET INFORMATION
---------------------------------
There are 2 groups of distinct atoms

 Group   1 Type C   : 20s17p16d8f3g contracted to 20s17p16d8f3g pattern {11111111111111111111/11111111111111111/1111111111111111/11111111/111}
 Group   2 Type H   : 17s7p3d contracted to 17s7p3d pattern {11111111111111111/1111111/111}

Atom   0C    basis set group =>   1
Atom   1H    basis set group =>   2
Atom   2H    basis set group =>   2
Atom   3H    basis set group =>   2
---------------------------------
AUXILIARY/C BASIS SET INFORMATION
---------------------------------
There are 2 groups of distinct atoms

 Group   1 Type C   : 20s17p16d8f3g contracted to 20s17p16d8f3g pattern {11111111111111111111/11111111111111111/1111111111111111/11111111/111}
 Group   2 Type H   : 17s7p3d contracted to 17s7p3d pattern {11111111111111111/1111111/111}

Atom   0C    basis set group =>   1
Atom   1H    basis set group =>   2
Atom   2H    basis set group =>   2
Atom   3H    basis set group =>   2
----------------------------------
AUXILIARY/JK BASIS SET INFORMATION
----------------------------------
There are 2 groups of distinct atoms

 Group   1 Type C   : 20s17p16d8f3g contracted to 20s17p16d8f3g pattern {11111111111111111111/11111111111111111/1111111111111111/11111111/111}
 Group   2 Type H   : 17s7p3d contracted to 17s7p3d pattern {11111111111111111/1111111/111}

Atom   0C    basis set group =>   1
Atom   1H    basis set group =>   2
Atom   2H    basis set group =>   2
Atom   3H    basis set group =>   2


           ************************************************************
           *        Program running with 4 parallel MPI-processes     *
           *              working on a common directory               *
           ************************************************************
------------------------------------------------------------------------------
                           ORCA GTO INTEGRAL CALCULATION
                           -- RI-GTO INTEGRALS CHOSEN --
------------------------------------------------------------------------------
------------------------------------------------------------------------------
                   ___                                                        
                  /   \      - P O W E R E D   B Y -                         
                 /     \                                                     
                 |  |  |   _    _      __       _____    __    __             
                 |  |  |  | |  | |    /  \     |  _  \  |  |  /  |          
                  \  \/   | |  | |   /    \    | | | |  |  | /  /          
                 / \  \   | |__| |  /  /\  \   | |_| |  |  |/  /          
                |  |  |   |  __  | /  /__\  \  |    /   |      \           
                |  |  |   | |  | | |   __   |  |    \   |  |\   \          
                \     /   | |  | | |  |  |  |  | |\  \  |  | \   \       
                 \___/    |_|  |_| |__|  |__|  |_| \__\ |__|  \__/        
                                                                              
                      - O R C A' S   B I G   F R I E N D -                    
                                      &                                       
                       - I N T E G R A L  F E E D E R -                       
                                                                              
 v1 FN, 2020, v2 2021                                                         
------------------------------------------------------------------------------


Reading SHARK input file /home/rwth0701/scratch/cs681498/orcajob__30556556-AIFm/17932.SHARKINP.tmp ... ok
----------------------
SHARK INTEGRAL PACKAGE
----------------------

Number of atoms                             ...      4
Number of basis functions                   ...     73
Number of shells                            ...     37
Maximum angular momentum                    ...      3
Integral batch strategy                     ... SHARK/LIBINT Hybrid
RI-J (if used) integral strategy            ... SPLIT-RIJ (Revised 2003 algorithm where possible)
Printlevel                                  ...      1
Contraction scheme used                     ... SEGMENTED contraction
Coulomb Range Separation                    ... NOT USED
Exchange Range Separation                   ... NOT USED
Finite Nucleus Model                        ... NOT USED
Auxiliary Coulomb fitting basis             ... AVAILABLE
   # of basis functions in Aux-J            ...    393
   # of shells in Aux-J                     ...    145
   Maximum angular momentum in Aux-J        ...      4
Auxiliary J/K fitting basis                 ... AVAILABLE
   # of basis functions in Aux-JK           ...    393
   # of shells in Aux-JK                    ...    145
   Maximum angular momentum in Aux-JK       ...      4
Auxiliary Correlation fitting basis         ... AVAILABLE
   # of basis functions in Aux-C            ...    393
   # of shells in Aux-C                     ...    145
   Maximum angular momentum in Aux-C        ...      4
Auxiliary 'external' fitting basis          ... NOT available
Integral threshold                          ...     1.000000e-10
Primitive cut-off                           ...     1.000000e-11
Primitive pair pre-selection threshold      ...     1.000000e-11

Calculating pre-screening integrals         ... done (  0.0 sec) Dimension = 37
Organizing shell pair data                  ... done (  0.0 sec)
Shell pair information
Total number of shell pairs                 ...       703
Shell pairs after pre-screening             ...       688
Total number of primitive shell pairs       ...      1300
Primitive shell pairs kept                  ...      1183
          la=0 lb=0:    261 shell pairs
          la=1 lb=0:    253 shell pairs
          la=1 lb=1:     66 shell pairs
          la=2 lb=0:     46 shell pairs
          la=2 lb=1:     22 shell pairs
          la=2 lb=2:      3 shell pairs
          la=3 lb=0:     23 shell pairs
          la=3 lb=1:     11 shell pairs
          la=3 lb=2:      2 shell pairs
          la=3 lb=3:      1 shell pairs

Calculating one electron integrals          ... done (  0.0 sec)
Calculating RI/J V-Matrix + Cholesky decomp.... done (  0.1 sec)
Calculating RI/JK V-Matrix + Cholesky decomp... done (  0.1 sec)
Calculating RI/C V-Matrix + Cholesky decomp.... done (  0.1 sec)
Calculating Nuclear repulsion               ... done (  0.0 sec) ENN=      9.663251949511 Eh

SHARK setup successfully completed in   0.5 seconds

Maximum memory used throughout the entire GTOINT-calculation: 13.7 MB


           ************************************************************
           *        Program running with 4 parallel MPI-processes     *
           *              working on a common directory               *
           ************************************************************
-------------------------------------------------------------------------------
                                 ORCA SCF
-------------------------------------------------------------------------------

------------
SCF SETTINGS
------------
Hamiltonian:
 Density Functional     Method          .... DFT(GTOs)
 Exchange Functional    Exchange        .... B88
   X-Alpha parameter    XAlpha          ....  0.666667
   Becke's b parameter  XBeta           ....  0.004200
 Correlation Functional Correlation     .... LYP
 LDA part of GGA corr.  LDAOpt          .... VWN-5
 Gradients option       PostSCFGGA      .... off
 Hybrid DFT is turned on
   Fraction HF Exchange ScalHFX         ....  0.200000
   Scaling of DF-GGA-X  ScalDFX         ....  0.720000
   Scaling of DF-GGA-C  ScalDFC         ....  0.810000
   Scaling of DF-LDA-C  ScalLDAC        ....  1.000000
   Perturbative correction              ....  0.000000
   Density functional embedding theory  .... OFF
   NL short-range parameter             ....  4.800000
 RI-approximation to the Coulomb term is turned on
   Number of AuxJ basis functions       .... 393
   RIJ-COSX (HFX calculated with COS-X)).... on


General Settings:
 Integral files         IntName         .... /home/rwth0701/scratch/cs681498/orcajob__30556556-AIFm/17932
 Hartree-Fock type      HFTyp           .... UHF
 Total Charge           Charge          ....    0
 Multiplicity           Mult            ....    2
 Number of Electrons    NEL             ....    9
 Basis Dimension        Dim             ....   73
 Nuclear Repulsion      ENuc            ....      9.6632519495 Eh

Convergence Acceleration:
 DIIS                   CNVDIIS         .... on
   Start iteration      DIISMaxIt       ....    12
   Startup error        DIISStart       ....  0.200000
   # of expansion vecs  DIISMaxEq       ....     5
   Bias factor          DIISBfac        ....   1.050
   Max. coefficient     DIISMaxC        ....  10.000
 Trust-Rad. Augm. Hess. CNVTRAH         .... auto
   Auto Start mean grad. ratio tolernc. ....  1.125000
   Auto Start start iteration           ....    20
   Auto Start num. interpolation iter.  ....    10
   Max. Number of Micro iterations      ....    16
   Max. Number of Macro iterations      .... Maxiter - #DIIS iter
   Number of Davidson start vectors     ....     2
   Converg. threshold I  (grad. norm)   ....   5.000e-05
   Converg. threshold II (energy diff.) ....   1.000e-06
   Grad. Scal. Fac. for Micro threshold ....   0.100
   Minimum threshold for Micro iter.    ....   0.010
   NR start threshold (gradient norm)   ....   0.001
   Initial trust radius                 ....   0.400
   Minimum AH scaling param. (alpha)    ....   1.000
   Maximum AH scaling param. (alpha)    .... 1000.000
   Orbital update algorithm             .... Taylor
   White noise on init. David. guess    .... on
   Maximum white noise                  ....   0.010
   Quad. conv. algorithm                .... NR
 SOSCF                  CNVSOSCF        .... off
 Level Shifting         CNVShift        .... on
   Level shift para.    LevelShift      ....    0.2500
   Turn off err/grad.   ShiftErr        ....    0.0010
 Zerner damping         CNVZerner       .... off
 Static damping         CNVDamp         .... on
   Fraction old density DampFac         ....    0.7000
   Max. Damping (<1)    DampMax         ....    0.9800
   Min. Damping (>=0)   DampMin         ....    0.0000
   Turn off err/grad.   DampErr         ....    0.1000
 Fernandez-Rico         CNVRico         .... off

SCF Procedure:
 Maximum # iterations   MaxIter         ....   125
 SCF integral mode      SCFMode         .... Direct
   Integral package                     .... SHARK and LIBINT hybrid scheme
 Reset frequency        DirectResetFreq ....    20
 Integral Threshold     Thresh          ....  1.000e-10 Eh
 Primitive CutOff       TCut            ....  1.000e-11 Eh

Convergence Tolerance:
 Convergence Check Mode ConvCheckMode   .... Total+1el-Energy
 Convergence forced     ConvForced      .... 0
 Energy Change          TolE            ....  1.000e-06 Eh
 1-El. energy change                    ....  1.000e-03 Eh
 DIIS Error             TolErr          ....  1.000e-06


Diagonalization of the overlap matrix:
Smallest eigenvalue                        ... 1.599e-03
Time for diagonalization                   ...    0.001 sec
Threshold for overlap eigenvalues          ... 1.000e-08
Number of eigenvalues below threshold      ... 0
Time for construction of square roots      ...    0.008 sec
Total time needed                          ...    0.010 sec

Time for model grid setup =    0.046 sec

------------------------------
INITIAL GUESS: MODEL POTENTIAL
------------------------------
Loading Hartree-Fock densities                     ... done
Calculating cut-offs                               ... done
Initializing the effective Hamiltonian             ... done
Setting up the integral package (SHARK)            ... done
Starting the Coulomb interaction                   ... done (   0.0 sec)
Reading the grid                                   ... done
Mapping shells                                     ... done
Starting the XC term evaluation                    ... done (   0.0 sec)
  promolecular density results
     # of electrons  =      8.998512461
     EX              =     -5.970313984
     EC              =     -0.260331049
     EX+EC           =     -6.230645033
Transforming the Hamiltonian                       ... done (   0.0 sec)
Diagonalizing the Hamiltonian                      ... done (   0.0 sec)
Back transforming the eigenvectors                 ... done (   0.0 sec)
Now organizing SCF variables                       ... done
                      ------------------
                      INITIAL GUESS DONE (   0.1 sec)
                      ------------------
-------------------
DFT GRID GENERATION
-------------------

General Integration Accuracy     IntAcc      ... 4.388
Radial Grid Type                 RadialGrid  ... OptM3 with GC (2021)
Angular Grid (max. ang.)         AngularGrid ... 4 (Lebedev-302)
Angular grid pruning method      GridPruning ... 4 (adaptive)
Weight generation scheme         WeightScheme... Becke
Basis function cutoff            BFCut       ... 1.0000e-10
Integration weight cutoff        WCut        ... 1.0000e-14
Angular grids for H and He will be reduced by one unit
Partially contracted basis set               ... off
Rotationally invariant grid construction     ... off

Total number of grid points                  ...    17023
Total number of batches                      ...      268
Average number of points per batch           ...       63
Average number of grid points per atom       ...     4256
Time for grid setup =    0.112 sec

--------------------
COSX GRID GENERATION
--------------------

GRIDX 1
-------
General Integration Accuracy     IntAcc      ... 3.816
Radial Grid Type                 RadialGrid  ... OptM3 with GC (2021)
Angular Grid (max. ang.)         AngularGrid ... 1 (Lebedev-50)
Angular grid pruning method      GridPruning ... 4 (adaptive)
Weight generation scheme         WeightScheme... Becke
Basis function cutoff            BFCut       ... 1.0000e-10
Integration weight cutoff        WCut        ... 1.0000e-14
Angular grids for H and He will be reduced by one unit
Partially contracted basis set               ... on
Rotationally invariant grid construction     ... off

Total number of grid points                  ...     2143
Total number of batches                      ...       35
Average number of points per batch           ...       61
Average number of grid points per atom       ...      536
UseSFitting                                  ... on

GRIDX 2
-------
General Integration Accuracy     IntAcc      ... 4.020
Radial Grid Type                 RadialGrid  ... OptM3 with GC (2021)
Angular Grid (max. ang.)         AngularGrid ... 2 (Lebedev-110)
Angular grid pruning method      GridPruning ... 4 (adaptive)
Weight generation scheme         WeightScheme... Becke
Basis function cutoff            BFCut       ... 1.0000e-10
Integration weight cutoff        WCut        ... 1.0000e-14
Angular grids for H and He will be reduced by one unit
Partially contracted basis set               ... on
Rotationally invariant grid construction     ... off

Total number of grid points                  ...     5033
Total number of batches                      ...       80
Average number of points per batch           ...       62
Average number of grid points per atom       ...     1258
UseSFitting                                  ... on

GRIDX 3
-------
General Integration Accuracy     IntAcc      ... 4.338
Radial Grid Type                 RadialGrid  ... OptM3 with GC (2021)
Angular Grid (max. ang.)         AngularGrid ... 3 (Lebedev-194)
Angular grid pruning method      GridPruning ... 4 (adaptive)
Weight generation scheme         WeightScheme... Becke
Basis function cutoff            BFCut       ... 1.0000e-10
Integration weight cutoff        WCut        ... 1.0000e-14
Angular grids for H and He will be reduced by one unit
Partially contracted basis set               ... on
Rotationally invariant grid construction     ... off

Total number of grid points                  ...    11734
Total number of batches                      ...      186
Average number of points per batch           ...       63
Average number of grid points per atom       ...     2934
UseSFitting                                  ... on

Time for X-Grid setup             =    0.326 sec

--------------
SCF ITERATIONS
--------------
ITER       Energy         Delta-E        Max-DP      RMS-DP      [F,P]     Damp
               ***  Starting incremental Fock matrix formation  ***
  0    -39.7863179995   0.000000000000 0.01532975  0.00050016  0.0904181 0.7000
  1    -39.8051064649  -0.018788465354 0.00960085  0.00037319  0.0477505 0.7000
                               ***Turning on DIIS***
  2    -39.8134517918  -0.008345326949 0.01576392  0.00065141  0.0195146 0.0000
  3    -39.8248729086  -0.011421116775 0.00865695  0.00028066  0.0283791 0.0000
  4    -39.8283265469  -0.003453638319 0.00304016  0.00007859  0.0058560 0.0000
  5    -39.8284666750  -0.000140128029 0.00107974  0.00003245  0.0019316 0.0000
  6    -39.8284836901  -0.000017015131 0.00089404  0.00002476  0.0008178 0.0000
               *** Restarting incremental Fock matrix formation ***
                                   *** Resetting DIIS ***
  7    -39.8284865252  -0.000002835109 0.00008520  0.00000286  0.0000903 0.0000
                 **** Energy Check signals convergence ****

               *****************************************************
               *                     SUCCESS                       *
               *           SCF CONVERGED AFTER   8 CYCLES          *
               *****************************************************

Old exchange energy                            =     -1.241116290 Eh
New exchange energy                            =     -1.241115668 Eh
Exchange energy change after final integration =      0.000000622 Eh
Total energy after final integration           =    -39.828485965 Eh
Final COS-X integration done in                =     0.176 sec

----------------
TOTAL SCF ENERGY
----------------

Total Energy       :          -39.82848597 Eh           -1083.78820 eV

Components:
Nuclear Repulsion  :            9.66325195 Eh             262.95045 eV
Electronic Energy  :          -49.49173791 Eh           -1346.73866 eV
One Electron Energy:          -71.63359337 Eh           -1949.24917 eV
Two Electron Energy:           22.14185545 Eh             602.51052 eV
Max COSX asymmetry :            0.00000006 Eh               0.00000 eV

Virial components:
Potential Energy   :          -79.44764403 Eh           -2161.88030 eV
Kinetic Energy     :           39.61915807 Eh            1078.09210 eV
Virial Ratio       :            2.00528350


DFT components:
N(Alpha)           :        4.999999487234 electrons
N(Beta)            :        4.000000168788 electrons
N(Total)           :        8.999999656022 electrons
E(X)               :       -4.912097082731 Eh       
E(C)               :       -0.309637898014 Eh       
E(XC)              :       -5.221734980745 Eh       
DFET-embed. en.    :        0.000000000000 Eh       

---------------
SCF CONVERGENCE
---------------

  Last Energy change         ...   -6.2245e-08  Tolerance :   1.0000e-06
  Last MAX-Density change    ...    0.0000e+00  Tolerance :   1.0000e-05
  Last RMS-Density change    ...    0.0000e+00  Tolerance :   1.0000e-06
  Last DIIS Error            ...    6.8336e-05  Tolerance :   1.0000e-06

             **** THE GBW FILE WAS UPDATED (/home/rwth0701/scratch/cs681498/orcajob__30556556-AIFm/17932.gbw) ****
             **** DENSITY /home/rwth0701/scratch/cs681498/orcajob__30556556-AIFm/17932.scfp WAS UPDATED ****
             **** ENERGY FILE WAS UPDATED (/home/rwth0701/scratch/cs681498/orcajob__30556556-AIFm/17932.en.tmp) ****
----------------------
UHF SPIN CONTAMINATION
----------------------

Warning: in a DFT calculation there is little theoretical justification to 
         calculate <S**2> as in Hartree-Fock theory. We will do it anyways
         but you should keep in mind that the values have only limited relevance

Expectation value of <S**2>     :     0.753626
Ideal value S*(S+1) for S=0.5   :     0.750000
Deviation                       :     0.003626

             **** THE GBW FILE WAS UPDATED (/home/rwth0701/scratch/cs681498/orcajob__30556556-AIFm/17932.gbw) ****
             **** DENSITY /home/rwth0701/scratch/cs681498/orcajob__30556556-AIFm/17932.scfp WAS UPDATED ****
----------------
ORBITAL ENERGIES
----------------
                 SPIN UP ORBITALS
  NO   OCC          E(Eh)            E(eV) 
   0   1.0000     -10.184289      -277.1286 
   1   1.0000      -0.687317       -18.7028 
   2   1.0000      -0.428652       -11.6642 
   3   1.0000      -0.416771       -11.3409 
   4   1.0000      -0.234638        -6.3848 
   5   0.0000       0.001028         0.0280 
   6   0.0000       0.036092         0.9821 
   7   0.0000       0.037450         1.0191 
   8   0.0000       0.047502         1.2926 
   9   0.0000       0.089728         2.4416 
  10   0.0000       0.092181         2.5084 
  11   0.0000       0.095771         2.6061 
  12   0.0000       0.222081         6.0431 
  13   0.0000       0.224350         6.1049 
  14   0.0000       0.247706         6.7404 
  15   0.0000       0.276226         7.5165 
  16   0.0000       0.303235         8.2515 
  17   0.0000       0.312236         8.4964 
  18   0.0000       0.341706         9.2983 
  19   0.0000       0.554877        15.0990 
  20   0.0000       0.562915        15.3177 
  21   0.0000       0.740599        20.1527 
  22   0.0000       0.746770        20.3207 
  23   0.0000       0.766114        20.8470 
  24   0.0000       0.837370        22.7860 
  25   0.0000       0.882688        24.0192 
  26   0.0000       0.897105        24.4115 
  27   0.0000       0.942604        25.6496 
  28   0.0000       0.962457        26.1898 
  29   0.0000       1.062157        28.9028 
  30   0.0000       1.074655        29.2428 
  31   0.0000       1.101735        29.9797 
  32   0.0000       1.164631        31.6912 
  33   0.0000       1.166498        31.7420 
  34   0.0000       1.467723        39.9388 
  35   0.0000       1.484866        40.4053 
  36   0.0000       1.500953        40.8430 
  37   0.0000       1.709398        46.5151 
  38   0.0000       1.736589        47.2550 
  39   0.0000       1.739044        47.3218 
  40   0.0000       2.717710        73.9526 
  41   0.0000       2.724228        74.1300 
  42   0.0000       2.894583        78.7656 
  43   0.0000       2.898783        78.8799 
  44   0.0000       2.931672        79.7748 
  45   0.0000       2.951676        80.3192 
  46   0.0000       2.987302        81.2886 
  47   0.0000       3.164668        86.1150 
  48   0.0000       3.171483        86.3004 
  49   0.0000       3.247056        88.3569 
  50   0.0000       3.249508        88.4236 
  51   0.0000       3.713529       101.0503 
  52   0.0000       3.776594       102.7664 
  53   0.0000       3.819825       103.9427 
  54   0.0000       3.891045       105.8807 
  55   0.0000       3.992418       108.6392 
  56   0.0000       4.035798       109.8197 
  57   0.0000       4.139822       112.6503 
  58   0.0000       4.140438       112.6670 
  59   0.0000       4.145387       112.8017 
  60   0.0000       4.679142       127.3259 
  61   0.0000       4.994291       135.9016 
  62   0.0000       5.363106       145.9375 
  63   0.0000       5.403844       147.0461 
  64   0.0000       5.533951       150.5865 
  65   0.0000       6.112108       166.3189 
  66   0.0000       6.137998       167.0234 
  67   0.0000       7.750039       210.8893 
  68   0.0000      29.078350       791.2621 
  69   0.0000      37.131190      1010.3911 
  70   0.0000      37.215914      1012.6965 
  71   0.0000      37.217607      1012.7426 
  72   0.0000     133.536903      3633.7239 

                 SPIN DOWN ORBITALS
  NO   OCC          E(Eh)            E(eV) 
   0   1.0000     -10.169862      -276.7360 
   1   1.0000      -0.647856       -17.6291 
   2   1.0000      -0.419295       -11.4096 
   3   1.0000      -0.407224       -11.0811 
   4   0.0000      -0.077264        -2.1025 
   5   0.0000       0.004162         0.1133 
   6   0.0000       0.035720         0.9720 
   7   0.0000       0.037045         1.0080 
   8   0.0000       0.060768         1.6536 
   9   0.0000       0.090911         2.4738 
  10   0.0000       0.094159         2.5622 
  11   0.0000       0.099276         2.7014 
  12   0.0000       0.223148         6.0722 
  13   0.0000       0.225552         6.1376 
  14   0.0000       0.267766         7.2863 
  15   0.0000       0.308186         8.3862 
  16   0.0000       0.310648         8.4532 
  17   0.0000       0.317057         8.6276 
  18   0.0000       0.355741         9.6802 
  19   0.0000       0.581753        15.8303 
  20   0.0000       0.590223        16.0608 
  21   0.0000       0.741722        20.1833 
  22   0.0000       0.747792        20.3485 
  23   0.0000       0.793704        21.5978 
  24   0.0000       0.835480        22.7346 
  25   0.0000       0.886899        24.1337 
  26   0.0000       0.901289        24.5253 
  27   0.0000       0.960641        26.1404 
  28   0.0000       0.982114        26.7247 
  29   0.0000       1.094397        29.7801 
  30   0.0000       1.120775        30.4978 
  31   0.0000       1.126489        30.6533 
  32   0.0000       1.177359        32.0376 
  33   0.0000       1.178624        32.0720 
  34   0.0000       1.483550        40.3694 
  35   0.0000       1.500282        40.8247 
  36   0.0000       1.507500        41.0212 
  37   0.0000       1.712317        46.5945 
  38   0.0000       1.745371        47.4940 
  39   0.0000       1.748050        47.5669 
  40   0.0000       2.758404        75.0600 
  41   0.0000       2.764873        75.2360 
  42   0.0000       2.899202        78.8913 
  43   0.0000       2.933431        79.8227 
  44   0.0000       2.955544        80.4244 
  45   0.0000       2.978595        81.0517 
  46   0.0000       3.040845        82.7456 
  47   0.0000       3.215524        87.4989 
  48   0.0000       3.222340        87.6843 
  49   0.0000       3.304953        89.9323 
  50   0.0000       3.307990        90.0150 
  51   0.0000       3.773903       102.6931 
  52   0.0000       3.776623       102.7671 
  53   0.0000       3.818138       103.8968 
  54   0.0000       3.892806       105.9286 
  55   0.0000       4.006858       109.0321 
  56   0.0000       4.050912       110.2309 
  57   0.0000       4.143353       112.7464 
  58   0.0000       4.148593       112.8890 
  59   0.0000       4.166722       113.3823 
  60   0.0000       4.679190       127.3272 
  61   0.0000       5.017794       136.5411 
  62   0.0000       5.361763       145.9010 
  63   0.0000       5.402417       147.0072 
  64   0.0000       5.530651       150.4967 
  65   0.0000       6.115258       166.4046 
  66   0.0000       6.140688       167.0966 
  67   0.0000       7.785389       211.8512 
  68   0.0000      29.105205       791.9929 
  69   0.0000      37.119559      1010.0746 
  70   0.0000      37.203982      1012.3718 
  71   0.0000      37.205888      1012.4237 
  72   0.0000     133.544764      3633.9378 

                    ********************************
                    * MULLIKEN POPULATION ANALYSIS *
                    ********************************

--------------------------------------------
MULLIKEN ATOMIC CHARGES AND SPIN POPULATIONS
--------------------------------------------
   0 C :   -0.426901    1.103081
   1 H :    0.143181   -0.033916
   2 H :    0.138980   -0.034829
   3 H :    0.144741   -0.034336
Sum of atomic charges         :   -0.0000000
Sum of atomic spin populations:    1.0000000

-----------------------------------------------------
MULLIKEN REDUCED ORBITAL CHARGES AND SPIN POPULATIONS
-----------------------------------------------------
CHARGE
  0 C s       :     3.333024  s :     3.333024
      pz      :     0.968836  p :     3.067342
      px      :     1.048394
      py      :     1.050112
      dz2     :     0.005681  d :     0.023509
      dxz     :     0.000161
      dyz     :     0.000178
      dx2y2   :     0.008866
      dxy     :     0.008624
      f0      :     0.000047  f :     0.003025
      f+1     :     0.000677
      f-1     :     0.000670
      f+2     :     0.000034
      f-2     :     0.000020
      f+3     :     0.000027
      f-3     :     0.001550
  1 H s       :     0.829758  s :     0.829758
      pz      :     0.010774  p :     0.027062
      px      :     0.006448
      py      :     0.009840
  2 H s       :     0.834735  s :     0.834735
      pz      :     0.010427  p :     0.026285
      px      :     0.008990
      py      :     0.006867
  3 H s       :     0.828582  s :     0.828582
      pz      :     0.010660  p :     0.026677
      px      :     0.008676
      py      :     0.007342

SPIN
  0 C s       :     0.067027  s :     0.067027
      pz      :     0.958970  p :     1.040406
      px      :     0.038410
      py      :     0.043026
      dz2     :    -0.004640  d :    -0.002992
      dxz     :    -0.000019
      dyz     :    -0.000094
      dx2y2   :     0.000894
      dxy     :     0.000867
      f0      :    -0.000028  f :    -0.001359
      f+1     :    -0.000623
      f-1     :    -0.000612
      f+2     :    -0.000015
      f-2     :    -0.000015
      f+3     :    -0.000000
      f-3     :    -0.000065
  1 H s       :    -0.044289  s :    -0.044289
      pz      :     0.010695  p :     0.010372
      px      :    -0.000292
      py      :    -0.000030
  2 H s       :    -0.044773  s :    -0.044773
      pz      :     0.010332  p :     0.009944
      px      :    -0.000128
      py      :    -0.000260
  3 H s       :    -0.044721  s :    -0.044721
      pz      :     0.010594  p :     0.010385
      px      :    -0.000123
      py      :    -0.000086


                     *******************************
                     * LOEWDIN POPULATION ANALYSIS *
                     *******************************

-------------------------------------------
LOEWDIN ATOMIC CHARGES AND SPIN POPULATIONS
-------------------------------------------
   0 C :   -0.150365    0.907627
   1 H :    0.046204    0.032129
   2 H :    0.050969    0.030419
   3 H :    0.053191    0.029825

----------------------------------------------------
LOEWDIN REDUCED ORBITAL CHARGES AND SPIN POPULATIONS
----------------------------------------------------
CHARGE
  0 C s       :     2.881787  s :     2.881787
      pz      :     0.874771  p :     3.169548
      px      :     1.146734
      py      :     1.148043
      dz2     :     0.007053  d :     0.091477
      dxz     :     0.000578
      dyz     :     0.000449
      dx2y2   :     0.041906
      dxy     :     0.041491
      f0      :     0.000292  f :     0.007552
      f+1     :     0.001928
      f-1     :     0.001928
      f+2     :     0.000078
      f-2     :     0.000062
      f+3     :     0.000095
      f-3     :     0.003170
  1 H s       :     0.806012  s :     0.806012
      pz      :     0.043692  p :     0.147784
      px      :     0.032499
      py      :     0.071593
  2 H s       :     0.804727  s :     0.804727
      pz      :     0.042438  p :     0.144304
      px      :     0.062221
      py      :     0.039645
  3 H s       :     0.803792  s :     0.803792
      pz      :     0.041845  p :     0.143017
      px      :     0.058873
      py      :     0.042298

SPIN
  0 C s       :     0.019185  s :     0.019185
      pz      :     0.863724  p :     0.897231
      px      :     0.014554
      py      :     0.018952
      dz2     :    -0.004022  d :    -0.007462
      dxz     :    -0.000048
      dyz     :    -0.000097
      dx2y2   :    -0.001646
      dxy     :    -0.001649
      f0      :     0.000147  f :    -0.001327
      f+1     :    -0.000571
      f-1     :    -0.000554
      f+2     :    -0.000016
      f-2     :    -0.000015
      f+3     :    -0.000007
      f-3     :    -0.000311
  1 H s       :    -0.016582  s :    -0.016582
      pz      :     0.043170  p :     0.048711
      px      :     0.000629
      py      :     0.004911
  2 H s       :    -0.016788  s :    -0.016788
      pz      :     0.041847  p :     0.047207
      px      :     0.003808
      py      :     0.001552
  3 H s       :    -0.017325  s :    -0.017325
      pz      :     0.041540  p :     0.047150
      px      :     0.003491
      py      :     0.002120


                      *****************************
                      * MAYER POPULATION ANALYSIS *
                      *****************************

  NA   - Mulliken gross atomic population
  ZA   - Total nuclear charge
  QA   - Mulliken gross atomic charge
  VA   - Mayer's total valence
  BVA  - Mayer's bonded valence
  FA   - Mayer's free valence

  ATOM       NA         ZA         QA         VA         BVA        FA
  0 C      6.4269     6.0000    -0.4269     3.8773     2.9322     0.9451
  1 H      0.8568     1.0000     0.1432     0.9835     0.9815     0.0020
  2 H      0.8610     1.0000     0.1390     0.9823     0.9803     0.0020
  3 H      0.8553     1.0000     0.1447     0.9849     0.9829     0.0020

  Mayer bond orders larger than 0.100000
B(  0-C ,  1-H ) :   0.9775 B(  0-C ,  2-H ) :   0.9779 B(  0-C ,  3-H ) :   0.9768 


-------
TIMINGS
-------

Total SCF time: 0 days 0 hours 0 min 5 sec 

Total time                  ....       5.008 sec
Sum of individual times     ....       4.332 sec  ( 86.5%)

Fock matrix formation       ....       3.620 sec  ( 72.3%)
  Split-RI-J                ....       0.369 sec  ( 10.2% of F)
  Chain of spheres X        ....       0.855 sec  ( 23.6% of F)
  XC integration            ....       1.660 sec  ( 45.8% of F)
    Basis function eval.    ....       0.108 sec  (  6.5% of XC)
    Density eval.           ....       0.135 sec  (  8.1% of XC)
    XC-Functional eval.     ....       0.108 sec  (  6.5% of XC)
    XC-Potential eval.      ....       0.150 sec  (  9.1% of XC)
Diagonalization             ....       0.040 sec  (  0.8%)
Density matrix formation    ....       0.002 sec  (  0.0%)
Population analysis         ....       0.057 sec  (  1.1%)
Initial guess               ....       0.047 sec  (  0.9%)
Orbital Transformation      ....       0.000 sec  (  0.0%)
Orbital Orthonormalization  ....       0.000 sec  (  0.0%)
DIIS solution               ....       0.081 sec  (  1.6%)
Grid generation             ....       0.484 sec  (  9.7%)

Maximum memory used throughout the entire SCF-calculation: 59.0 MB

-------------------------   --------------------
FINAL SINGLE POINT ENERGY       -39.828485965098
-------------------------   --------------------

   --->>> g-tensor requested, so NeedSOC=true

                            ***************************************
                            *     ORCA property calculations      *
                            ***************************************

                                    ---------------------
                                    Active property flags
                                    ---------------------
   (+) Dipole Moment
   (+) g-tensor
   (+) Nuclear properties (Hyperfine,Quadrupole)
   (+) Spin-Orbit Integrals are needed


------------------------------------------------------------------------------
                       ORCA ELECTRIC PROPERTIES CALCULATION
------------------------------------------------------------------------------

Dipole Moment Calculation                       ... on
Quadrupole Moment Calculation                   ... off
Polarizability Calculation                      ... off
GBWName                                         ... /home/rwth0701/scratch/cs681498/orcajob__30556556-AIFm/17932.gbw
Electron density                                ... /home/rwth0701/scratch/cs681498/orcajob__30556556-AIFm/17932.scfp
The origin for moment calculation is the CENTER OF MASS  = (-159.284372, -211.017316 -59.354191)

-------------
DIPOLE MOMENT
-------------
                                X             Y             Z
Electronic contribution:     -0.04481      -0.00955      -0.01261
Nuclear contribution   :      0.05057       0.00809       0.01869
                        -----------------------------------------
Total Dipole Moment    :      0.00575      -0.00146       0.00608
                        -----------------------------------------
Magnitude (a.u.)       :      0.00850
Magnitude (Debye)      :      0.02160



--------------------
Rotational spectrum 
--------------------
 
Rotational constants in cm-1:     9.992492     9.140562     4.774093 
Rotational constants in MHz : 299567.366227 274027.156362 143123.711881 

 Dipole components along the rotational axes: 
x,y,z [a.u.] :     0.005093     0.003361     0.005914 
x,y,z [Debye]:     0.012945     0.008543     0.015033 

 


           ************************************************************
           *        Program running with 4 parallel MPI-processes     *
           *              working on a common directory               *
           ************************************************************
------------------------------------------------------------------------------
                         ORCA SPIN-ORBIT COUPLING CALCULATION
------------------------------------------------------------------------------

GBW file                                    ... /home/rwth0701/scratch/cs681498/orcajob__30556556-AIFm/17932.gbw
Input density                               ... /home/rwth0701/scratch/cs681498/orcajob__30556556-AIFm/17932.scfp
Output integrals                            ... /home/rwth0701/scratch/cs681498/orcajob__30556556-AIFm/17932
Operator type                               ... Mean-field/Effective potential
   One-Electron Terms                       ... 1
   Coulomb Contribution                     ... 3
   Exchange Contribution                    ... 3
   Correlation Contribution                 ... 0
   Maximum number of centers                ... 4
SHARK 2-electron RIJ-SOMF                   ... done (  0.1 sec)
SHARK 1-electron  MaxCenter=4               ... done (  0.0 sec)
SHARK 2-electron DoJ,X=0,1 MaxCenter=1      ... done (  0.1 sec)

Maximum memory used throughout the entire SOC-calculation: 11.3 MB
Total time for SOC:  2.172


           ************************************************************
           *        Program running with 4 parallel MPI-processes     *
           *              working on a common directory               *
           ************************************************************
------------------------------------------------------------------------------
                                ORCA EPR/NMR CALCULATION
------------------------------------------------------------------------------

GBWName                      ... /home/rwth0701/scratch/cs681498/orcajob__30556556-AIFm/17932.gbw
Electron density             ... /home/rwth0701/scratch/cs681498/orcajob__30556556-AIFm/17932.scfp
Spin density                 ... /home/rwth0701/scratch/cs681498/orcajob__30556556-AIFm/17932.scfr
Spin-orbit integrals         ... /home/rwth0701/scratch/cs681498/orcajob__30556556-AIFm/17932
Treatment of gauge           ... GIAO (approximations 1/2el = 0,0)
Details of the CP(SCF) procedure:
       Solver   = POPLE   
       MaxIter  =    64   
       Tolerance=    1.000e-03
       COSX Grid=     1   
       Op-0     =   0-  4 =>   5- 72
       Op-1     =   0-  3 =>   4- 72
Multiplicity                 ... 2
g-tensor                     ... 1
NMR chemical shifts          ... 0
NMR spin-spin couplings      ... 0
NMR spectrum                 ... 0
Number of nuclei for epr/nmr ... 4
   Nucleus:   1H 
       Hyperfine : Isotope=    1 I=   0.500 P= 533.551
       Quadrupole: Isotope=    2 I=   1.000 Q=   0.003
       Spin-Orbit: Zeff=   1.000
       Nuclear Spin-Spin: Gn=   0.000
       EPRNMR Input: 
       rho(0)=N f(grad)=N a(iso)=Y a(dip)=Y a(orb)=Y sigma(nmr)=N spin-spin(nmr)=all-N,DSO-N,PSO-N,FC-N,SD-N
   Nucleus:   2H 
       Hyperfine : Isotope=    1 I=   0.500 P= 533.551
       Quadrupole: Isotope=    2 I=   1.000 Q=   0.003
       Spin-Orbit: Zeff=   1.000
       Nuclear Spin-Spin: Gn=   0.000
       EPRNMR Input: 
       rho(0)=N f(grad)=N a(iso)=Y a(dip)=Y a(orb)=Y sigma(nmr)=N spin-spin(nmr)=all-N,DSO-N,PSO-N,FC-N,SD-N
   Nucleus:   3H 
       Hyperfine : Isotope=    1 I=   0.500 P= 533.551
       Quadrupole: Isotope=    2 I=   1.000 Q=   0.003
       Spin-Orbit: Zeff=   1.000
       Nuclear Spin-Spin: Gn=   0.000
       EPRNMR Input: 
       rho(0)=N f(grad)=N a(iso)=Y a(dip)=Y a(orb)=Y sigma(nmr)=N spin-spin(nmr)=all-N,DSO-N,PSO-N,FC-N,SD-N
   Nucleus:   0C 
       Hyperfine : Isotope=   13 I=   0.500 P= 134.190
       Quadrupole: Isotope=   13 I=   0.500 Q=   0.000
       Spin-Orbit: Zeff=   3.600
       Nuclear Spin-Spin: Gn=   0.000
       EPRNMR Input: 
       rho(0)=N f(grad)=N a(iso)=Y a(dip)=Y a(orb)=Y sigma(nmr)=N spin-spin(nmr)=all-N,DSO-N,PSO-N,FC-N,SD-N
Forming RHS of the CP-SCF equations         ... 
Calculating right hand sides for GIAO treatment        ... 
  Entering RightHandSide GIAO. ScalHFX=    0.2000 NeedHFX=1
     -> 1-electron GIAO integrals will be done analytically
     -> RIJCOSX used in SCF. Same chosen for GIAO calculation.
     Making grid for GIAO integrations   ...

GRID GIAO
---------

General Integration Accuracy     IntAcc      ... 4.388
Radial Grid Type                 RadialGrid  ... OptM3 with GC (2021)
Angular Grid (max. ang.)         AngularGrid ... 4 (Lebedev-302)
Angular grid pruning method      GridPruning ... 4 (adaptive)
Weight generation scheme         WeightScheme... Becke
Basis function cutoff            BFCut       ... 1.0000e-10
Integration weight cutoff        WCut        ... 1.0000e-14
Angular grids for H and He will be reduced by one unit
Partially contracted basis set               ... off
Rotationally invariant grid construction     ... off

Total number of grid points                  ...    17023
Total number of batches                      ...      268
Average number of points per batch           ...       63
Average number of grid points per atom       ...     4256

  One-electron GIAO integrals (SHARK)     ... done
  Calculating G(B)[P]                     ... (RI-J: SHARK-ok) (COSX-ok) (add-J+K:ok) => dG/dB done
  DFT XC-terms                            ... done
  Extracting occupied and virtual blocks  ... 
  Operator  0  NO=   5 NV=  68 
  Operator  1  NO=   4 NV=  69 
  Transforming and RHS contribution       ... done
  Adding eps_i * S(B)_ai terms            ... done
  Projecting overlap derivatives          ... done
  Building G[dS/dB_ij] (COSX)             ... done
  Transforming to MO basis                ... done
  Summing G[dS/dB_ij] into RHS contribs.  ... done

  GIAO profiling information: 
    Total GIAO time               ...       0.8 sec
       GIAO 1-electron integrals  ...       0.0 sec (  0.6%)
       GIAO G(dS/dB) terms        ...       0.1 sec ( 16.2%)
       GIAO RI-J                  ...       0.1 sec ( 12.6%)
       GIAO COSX                  ...       0.1 sec ( 17.6%)
       GIAO XC-terms              ...       0.3 sec ( 36.0%)

  GIAO right hand side done


------------------------------------------------------------------------------
                           ORCA CP-SCF CALCULATION
------------------------------------------------------------------------------

Input orbitals are from        ... /home/rwth0701/scratch/cs681498/orcajob__30556556-AIFm/17932.gbw
Input Perturbation             ... /home/rwth0701/scratch/cs681498/orcajob__30556556-AIFm/17932.pin.tmp
Wavefunction output            ... /home/rwth0701/scratch/cs681498/orcajob__30556556-AIFm/17932.pout.tmp
Perturbation mode              ... Imaginary perturbation
Solver                         ... POPLE
Max. number of iterations      ... 64
Convergence tolerance          ... 1.000e-03
Integral handling              ... Direct
DFT GridXC                     ... 1
COSX GridX                     ... 1
COSX IntAccX                   ... 3.067
COSX Algorithm                 ... Auto
Number of perturbations        ... 3
Number of operators            ... 2
Orbital ranges used for CP-SCF:
 Operator 0:  Orbitals   0...  4  to   5... 72
 Operator 1:  Orbitals   0...  3  to   4... 72
Variables per perturbation     ... 616
DFT calculation                         ... on
XC functional terms                     ... off
Hybrid DFT                              ... on
   Exchange mixing (SCF)                ...  0.200
   Exchange mixing (CP-SCF)             ...  0.200
   GGA exch. scaling(SCF)               ...  0.720
   GGA exch. scaling (CP-SCF)           ...  0.720
   GGA corr. scaling (SCF)              ...  0.810
   GGA corr. scaling (CP-SCF)           ...  0.810

CP-SCF GRID
-----------

General Integration Accuracy     IntAcc      ... 3.467
Radial Grid Type                 RadialGrid  ... OptM3 with GC (2021)
Angular Grid (max. ang.)         AngularGrid ... 1 (Lebedev-50)
Angular grid pruning method      GridPruning ... 4 (adaptive)
Weight generation scheme         WeightScheme... Becke
Basis function cutoff            BFCut       ... 1.0000e-10
Integration weight cutoff        WCut        ... 1.0000e-14
Angular grids for H and He will be reduced by one unit
Partially contracted basis set               ... off
Rotationally invariant grid construction     ... off

Total number of grid points                  ...     2337
Total number of batches                      ...       38
Average number of points per batch           ...       61
Average number of grid points per atom       ...      584

CP-SCF GRIDX
------------

General Integration Accuracy     IntAcc      ... 3.067
Radial Grid Type                 RadialGrid  ... OptM3 with GC (2021)
Angular Grid (max. ang.)         AngularGrid ... 1 (Lebedev-50)
Angular grid pruning method      GridPruning ... 4 (adaptive)
Weight generation scheme         WeightScheme... Becke
Basis function cutoff            BFCut       ... 1.0000e-10
Integration weight cutoff        WCut        ... 1.0000e-14
Angular grids for H and He will be reduced by one unit
Partially contracted basis set               ... on
Rotationally invariant grid construction     ... off

Total number of grid points                  ...     1070
Total number of batches                      ...       20
Average number of points per batch           ...       53
Average number of grid points per atom       ...      268

Memory available               ... 1014.6 MB
Memory needed per perturbation ...   0.4 MB
Perturbations treated per batch... 3
Number of batches              ... 1
     CP-SCF ITERATION   0:   1.1777e+01 (   0.1 sec   0/  3 done)
     CP-SCF ITERATION   1:   8.6889e-02 (   0.1 sec   0/  3 done)
     CP-SCF ITERATION   2:   3.6506e-03 (   0.1 sec   0/  3 done)
     CP-SCF ITERATION   3:   1.4124e-04 (   0.1 sec   3/  3 done)
                    *** THE CP-SCF HAS CONVERGED ***

Forming final perturbed densities           ... done
Transforming perturbed density to AO basis  ... done

Magnetic field perturbation calculated in  1.194 sec
GIAO: Diamagnetic terms      (analytic)     (SHARK) ... done
GIAO: 1el-Paramagnetic terms (analytic)     (SHARK) ... done

-------------------
ELECTRONIC G-MATRIX
-------------------

 The g-matrix: 
              2.0029006   -0.0000124    0.0000303
             -0.0000131    2.0028932    0.0000573
              0.0000394    0.0000697    2.0022384

 gel          2.0023193    2.0023193    2.0023193
 gRMC        -0.0001268   -0.0001268   -0.0001268
 gDSO(tot)    0.0000342    0.0000708    0.0000710
 gPSO(tot)    0.0000036    0.0006281    0.0006469
             ----------   ----------   ----------
 g(tot)       2.0022303    2.0028914    2.0029104 iso=  2.0026774
 Delta-g     -0.0000889    0.0005721    0.0005911 iso=  0.0003581
 Orientation: 
  X          -0.0535434    0.6436258   -0.7634651
  Y          -0.0962955    0.7576705    0.6454941
  Z           0.9939116    0.1080802    0.0214100

Notes:  (1) The g-matrix conforms to the "BgS" spin Hamiltonian convention. 
        (2) The principal values are square roots of the eigenvalues of g*gT.
        (3) Orientations are eigenvectors of g*gT written as column vectors.
        (4) Individual contributions are projections of the full matrices onto the eigenvectors of g*gT.
        (5) Tensor is right-handed.


-----------------------------------------
ELECTRIC AND MAGNETIC HYPERFINE STRUCTURE
-----------------------------------------

 -----------------------------------------------------------
 Nucleus   1H : A:ISTP=    1 I=  0.5 P=533.5514 MHz/au**3
                Q:ISTP=    2 I=  1.0 Q=  0.0029 barn     
 -----------------------------------------------------------
 Solving for nuclear perturbation:
Forming RHS of the CP-SCF equations         ... 
Calc. nucleus orbit integrals (SHARK)       ... done

------------------------------------------------------------------------------
                           ORCA CP-SCF CALCULATION
------------------------------------------------------------------------------

Input orbitals are from        ... /home/rwth0701/scratch/cs681498/orcajob__30556556-AIFm/17932.gbw
Input Perturbation             ... /home/rwth0701/scratch/cs681498/orcajob__30556556-AIFm/17932.pin.tmp
Wavefunction output            ... /home/rwth0701/scratch/cs681498/orcajob__30556556-AIFm/17932.pout.tmp
Perturbation mode              ... Imaginary perturbation
Solver                         ... POPLE
Max. number of iterations      ... 64
Convergence tolerance          ... 1.000e-03
Integral handling              ... Direct
DFT GridXC                     ... 1
COSX GridX                     ... 1
COSX IntAccX                   ... 3.067
COSX Algorithm                 ... Auto
Number of perturbations        ... 3
Number of operators            ... 2
Orbital ranges used for CP-SCF:
 Operator 0:  Orbitals   0...  4  to   5... 72
 Operator 1:  Orbitals   0...  3  to   4... 72
Variables per perturbation     ... 616
DFT calculation                         ... on
XC functional terms                     ... off
Hybrid DFT                              ... on
   Exchange mixing (SCF)                ...  0.200
   Exchange mixing (CP-SCF)             ...  0.200
   GGA exch. scaling(SCF)               ...  0.720
   GGA exch. scaling (CP-SCF)           ...  0.720
   GGA corr. scaling (SCF)              ...  0.810
   GGA corr. scaling (CP-SCF)           ...  0.810

CP-SCF GRID
-----------

General Integration Accuracy     IntAcc      ... 3.467
Radial Grid Type                 RadialGrid  ... OptM3 with GC (2021)
Angular Grid (max. ang.)         AngularGrid ... 1 (Lebedev-50)
Angular grid pruning method      GridPruning ... 4 (adaptive)
Weight generation scheme         WeightScheme... Becke
Basis function cutoff            BFCut       ... 1.0000e-10
Integration weight cutoff        WCut        ... 1.0000e-14
Angular grids for H and He will be reduced by one unit
Partially contracted basis set               ... off
Rotationally invariant grid construction     ... off

Total number of grid points                  ...     2337
Total number of batches                      ...       38
Average number of points per batch           ...       61
Average number of grid points per atom       ...      584

CP-SCF GRIDX
------------

General Integration Accuracy     IntAcc      ... 3.067
Radial Grid Type                 RadialGrid  ... OptM3 with GC (2021)
Angular Grid (max. ang.)         AngularGrid ... 1 (Lebedev-50)
Angular grid pruning method      GridPruning ... 4 (adaptive)
Weight generation scheme         WeightScheme... Becke
Basis function cutoff            BFCut       ... 1.0000e-10
Integration weight cutoff        WCut        ... 1.0000e-14
Angular grids for H and He will be reduced by one unit
Partially contracted basis set               ... on
Rotationally invariant grid construction     ... off

Total number of grid points                  ...     1070
Total number of batches                      ...       20
Average number of points per batch           ...       53
Average number of grid points per atom       ...      268

Memory available               ... 968.0 MB
Memory needed per perturbation ...   0.4 MB
Perturbations treated per batch... 3
Number of batches              ... 1
     CP-SCF ITERATION   0:   6.7943e-02 (   0.1 sec   0/  3 done)
     CP-SCF ITERATION   1:   2.4124e-03 (   0.1 sec   1/  3 done)
     CP-SCF ITERATION   2:   1.6044e-04 (   0.1 sec   3/  3 done)
                    *** THE CP-SCF HAS CONVERGED ***

Forming final perturbed densities           ... done
Transforming perturbed density to AO basis  ... done

 Raw HFC matrix (all values in MHz): 
 -----------------------------------
              -105.0504              -0.9463              -2.0066
                -0.9461             -26.2698               2.9064
                -2.0066               2.9064             -63.0516

 A(FC)         -64.8051             -64.8051             -64.8051
 A(SD)          38.7660               1.6145             -40.3805
 A(ORB+DIA)      0.0128              -0.0007               0.0313    A(PC) =   0.0145
 A(ORB)          0.0078               0.0005               0.0298    A(PC) =   0.0127
 A(DIA)          0.0050              -0.0012               0.0015    A(PC) =   0.0018
             ----------           ----------           ----------
 A(Tot)        -26.0263             -63.1912            -105.1543    A(iso)=  -64.7906
 Orientation: 
  X          -0.0139416           -0.0459354            0.9988471
  Y           0.9967771           -0.0795624            0.0102537
  Z           0.0789997            0.9957709            0.0468966

Notes:  (1) The A matrix conforms to the "SAI" spin Hamiltonian convention.
        (2) Tensor is right-handed.

 -----------------------------------------------------------
 Nucleus   2H : A:ISTP=    1 I=  0.5 P=533.5514 MHz/au**3
                Q:ISTP=    2 I=  1.0 Q=  0.0029 barn     
 -----------------------------------------------------------
 Solving for nuclear perturbation:
Forming RHS of the CP-SCF equations         ... 
Calc. nucleus orbit integrals (SHARK)       ... done

------------------------------------------------------------------------------
                           ORCA CP-SCF CALCULATION
------------------------------------------------------------------------------

Input orbitals are from        ... /home/rwth0701/scratch/cs681498/orcajob__30556556-AIFm/17932.gbw
Input Perturbation             ... /home/rwth0701/scratch/cs681498/orcajob__30556556-AIFm/17932.pin.tmp
Wavefunction output            ... /home/rwth0701/scratch/cs681498/orcajob__30556556-AIFm/17932.pout.tmp
Perturbation mode              ... Imaginary perturbation
Solver                         ... POPLE
Max. number of iterations      ... 64
Convergence tolerance          ... 1.000e-03
Integral handling              ... Direct
DFT GridXC                     ... 1
COSX GridX                     ... 1
COSX IntAccX                   ... 3.067
COSX Algorithm                 ... Auto
Number of perturbations        ... 3
Number of operators            ... 2
Orbital ranges used for CP-SCF:
 Operator 0:  Orbitals   0...  4  to   5... 72
 Operator 1:  Orbitals   0...  3  to   4... 72
Variables per perturbation     ... 616
DFT calculation                         ... on
XC functional terms                     ... off
Hybrid DFT                              ... on
   Exchange mixing (SCF)                ...  0.200
   Exchange mixing (CP-SCF)             ...  0.200
   GGA exch. scaling(SCF)               ...  0.720
   GGA exch. scaling (CP-SCF)           ...  0.720
   GGA corr. scaling (SCF)              ...  0.810
   GGA corr. scaling (CP-SCF)           ...  0.810

CP-SCF GRID
-----------

General Integration Accuracy     IntAcc      ... 3.467
Radial Grid Type                 RadialGrid  ... OptM3 with GC (2021)
Angular Grid (max. ang.)         AngularGrid ... 1 (Lebedev-50)
Angular grid pruning method      GridPruning ... 4 (adaptive)
Weight generation scheme         WeightScheme... Becke
Basis function cutoff            BFCut       ... 1.0000e-10
Integration weight cutoff        WCut        ... 1.0000e-14
Angular grids for H and He will be reduced by one unit
Partially contracted basis set               ... off
Rotationally invariant grid construction     ... off

Total number of grid points                  ...     2337
Total number of batches                      ...       38
Average number of points per batch           ...       61
Average number of grid points per atom       ...      584

CP-SCF GRIDX
------------

General Integration Accuracy     IntAcc      ... 3.067
Radial Grid Type                 RadialGrid  ... OptM3 with GC (2021)
Angular Grid (max. ang.)         AngularGrid ... 1 (Lebedev-50)
Angular grid pruning method      GridPruning ... 4 (adaptive)
Weight generation scheme         WeightScheme... Becke
Basis function cutoff            BFCut       ... 1.0000e-10
Integration weight cutoff        WCut        ... 1.0000e-14
Angular grids for H and He will be reduced by one unit
Partially contracted basis set               ... on
Rotationally invariant grid construction     ... off

Total number of grid points                  ...     1070
Total number of batches                      ...       20
Average number of points per batch           ...       53
Average number of grid points per atom       ...      268

Memory available               ... 967.8 MB
Memory needed per perturbation ...   0.4 MB
Perturbations treated per batch... 3
Number of batches              ... 1
     CP-SCF ITERATION   0:   6.2306e-02 (   0.1 sec   0/  3 done)
     CP-SCF ITERATION   1:   2.2812e-03 (   0.1 sec   1/  3 done)
     CP-SCF ITERATION   2:   1.9470e-04 (   0.1 sec   3/  3 done)
                    *** THE CP-SCF HAS CONVERGED ***

Forming final perturbed densities           ... done
Transforming perturbed density to AO basis  ... done

 Raw HFC matrix (all values in MHz): 
 -----------------------------------
               -41.9946              31.3818               3.9754
                31.3816             -87.5436              -0.5651
                 3.9755              -0.5650             -62.9071

 A(FC)         -64.1629             -64.1629             -64.1629
 A(SD)          38.4462               1.0972             -39.5434
 A(ORB+DIA)      0.0131              -0.0007               0.0311    A(PC) =   0.0145
 A(ORB)          0.0082               0.0005               0.0297    A(PC) =   0.0128
 A(DIA)          0.0049              -0.0012               0.0014    A(PC) =   0.0017
             ----------           ----------           ----------
 A(Tot)        -25.7036             -63.0664            -103.6752    A(iso)=  -64.1484
 Orientation: 
  X          -0.8886036           -0.0527362           -0.4556342
  Y          -0.4501325           -0.0905705            0.8883568
  Z          -0.0881156            0.9944928            0.0567430

Notes:  (1) The A matrix conforms to the "SAI" spin Hamiltonian convention.
        (2) Tensor is right-handed.

 -----------------------------------------------------------
 Nucleus   3H : A:ISTP=    1 I=  0.5 P=533.5514 MHz/au**3
                Q:ISTP=    2 I=  1.0 Q=  0.0029 barn     
 -----------------------------------------------------------
 Solving for nuclear perturbation:
Forming RHS of the CP-SCF equations         ... 
Calc. nucleus orbit integrals (SHARK)       ... done

------------------------------------------------------------------------------
                           ORCA CP-SCF CALCULATION
------------------------------------------------------------------------------

Input orbitals are from        ... /home/rwth0701/scratch/cs681498/orcajob__30556556-AIFm/17932.gbw
Input Perturbation             ... /home/rwth0701/scratch/cs681498/orcajob__30556556-AIFm/17932.pin.tmp
Wavefunction output            ... /home/rwth0701/scratch/cs681498/orcajob__30556556-AIFm/17932.pout.tmp
Perturbation mode              ... Imaginary perturbation
Solver                         ... POPLE
Max. number of iterations      ... 64
Convergence tolerance          ... 1.000e-03
Integral handling              ... Direct
DFT GridXC                     ... 1
COSX GridX                     ... 1
COSX IntAccX                   ... 3.067
COSX Algorithm                 ... Auto
Number of perturbations        ... 3
Number of operators            ... 2
Orbital ranges used for CP-SCF:
 Operator 0:  Orbitals   0...  4  to   5... 72
 Operator 1:  Orbitals   0...  3  to   4... 72
Variables per perturbation     ... 616
DFT calculation                         ... on
XC functional terms                     ... off
Hybrid DFT                              ... on
   Exchange mixing (SCF)                ...  0.200
   Exchange mixing (CP-SCF)             ...  0.200
   GGA exch. scaling(SCF)               ...  0.720
   GGA exch. scaling (CP-SCF)           ...  0.720
   GGA corr. scaling (SCF)              ...  0.810
   GGA corr. scaling (CP-SCF)           ...  0.810

CP-SCF GRID
-----------

General Integration Accuracy     IntAcc      ... 3.467
Radial Grid Type                 RadialGrid  ... OptM3 with GC (2021)
Angular Grid (max. ang.)         AngularGrid ... 1 (Lebedev-50)
Angular grid pruning method      GridPruning ... 4 (adaptive)
Weight generation scheme         WeightScheme... Becke
Basis function cutoff            BFCut       ... 1.0000e-10
Integration weight cutoff        WCut        ... 1.0000e-14
Angular grids for H and He will be reduced by one unit
Partially contracted basis set               ... off
Rotationally invariant grid construction     ... off

Total number of grid points                  ...     2337
Total number of batches                      ...       38
Average number of points per batch           ...       61
Average number of grid points per atom       ...      584

CP-SCF GRIDX
------------

General Integration Accuracy     IntAcc      ... 3.067
Radial Grid Type                 RadialGrid  ... OptM3 with GC (2021)
Angular Grid (max. ang.)         AngularGrid ... 1 (Lebedev-50)
Angular grid pruning method      GridPruning ... 4 (adaptive)
Weight generation scheme         WeightScheme... Becke
Basis function cutoff            BFCut       ... 1.0000e-10
Integration weight cutoff        WCut        ... 1.0000e-14
Angular grids for H and He will be reduced by one unit
Partially contracted basis set               ... on
Rotationally invariant grid construction     ... off

Total number of grid points                  ...     1070
Total number of batches                      ...       20
Average number of points per batch           ...       53
Average number of grid points per atom       ...      268

Memory available               ... 967.7 MB
Memory needed per perturbation ...   0.4 MB
Perturbations treated per batch... 3
Number of batches              ... 1
     CP-SCF ITERATION   0:   6.4261e-02 (   0.1 sec   0/  3 done)
     CP-SCF ITERATION   1:   2.5116e-03 (   0.1 sec   1/  3 done)
     CP-SCF ITERATION   2:   2.1361e-04 (   0.1 sec   3/  3 done)
                    *** THE CP-SCF HAS CONVERGED ***

Forming final perturbed densities           ... done
Transforming perturbed density to AO basis  ... done

 Raw HFC matrix (all values in MHz): 
 -----------------------------------
               -50.8463             -35.3611              -2.6599
               -35.3609             -82.0625              -2.9526
                -2.6599              -2.9525             -65.6025

 A(FC)         -66.1847             -66.1847             -66.1847
 A(SD)          38.3799               0.9592             -39.3390
 A(ORB+DIA)      0.0130              -0.0007               0.0304    A(PC) =   0.0142
 A(ORB)          0.0081               0.0005               0.0290    A(PC) =   0.0125
 A(DIA)          0.0049              -0.0012               0.0014    A(PC) =   0.0017
             ----------           ----------           ----------
 A(Tot)        -27.7919             -65.2262            -105.4933    A(iso)=  -66.1705
 Orientation: 
  X           0.8381377            0.0397500            0.5440083
  Y          -0.5452124            0.0910152            0.8333425
  Z          -0.0163876           -0.9950559            0.0979555

Notes:  (1) The A matrix conforms to the "SAI" spin Hamiltonian convention.
        (2) Tensor is right-handed.

 -----------------------------------------------------------
 Nucleus   0C : A:ISTP=   13 I=  0.5 P=134.1903 MHz/au**3
                Q:ISTP=   13 I=  0.5 Q=  0.0000 barn     
 -----------------------------------------------------------
 Solving for nuclear perturbation:
Forming RHS of the CP-SCF equations         ... 
Calc. nucleus orbit integrals (SHARK)       ... done

------------------------------------------------------------------------------
                           ORCA CP-SCF CALCULATION
------------------------------------------------------------------------------

Input orbitals are from        ... /home/rwth0701/scratch/cs681498/orcajob__30556556-AIFm/17932.gbw
Input Perturbation             ... /home/rwth0701/scratch/cs681498/orcajob__30556556-AIFm/17932.pin.tmp
Wavefunction output            ... /home/rwth0701/scratch/cs681498/orcajob__30556556-AIFm/17932.pout.tmp
Perturbation mode              ... Imaginary perturbation
Solver                         ... POPLE
Max. number of iterations      ... 64
Convergence tolerance          ... 1.000e-03
Integral handling              ... Direct
DFT GridXC                     ... 1
COSX GridX                     ... 1
COSX IntAccX                   ... 3.067
COSX Algorithm                 ... Auto
Number of perturbations        ... 3
Number of operators            ... 2
Orbital ranges used for CP-SCF:
 Operator 0:  Orbitals   0...  4  to   5... 72
 Operator 1:  Orbitals   0...  3  to   4... 72
Variables per perturbation     ... 616
DFT calculation                         ... on
XC functional terms                     ... off
Hybrid DFT                              ... on
   Exchange mixing (SCF)                ...  0.200
   Exchange mixing (CP-SCF)             ...  0.200
   GGA exch. scaling(SCF)               ...  0.720
   GGA exch. scaling (CP-SCF)           ...  0.720
   GGA corr. scaling (SCF)              ...  0.810
   GGA corr. scaling (CP-SCF)           ...  0.810

CP-SCF GRID
-----------

General Integration Accuracy     IntAcc      ... 3.467
Radial Grid Type                 RadialGrid  ... OptM3 with GC (2021)
Angular Grid (max. ang.)         AngularGrid ... 1 (Lebedev-50)
Angular grid pruning method      GridPruning ... 4 (adaptive)
Weight generation scheme         WeightScheme... Becke
Basis function cutoff            BFCut       ... 1.0000e-10
Integration weight cutoff        WCut        ... 1.0000e-14
Angular grids for H and He will be reduced by one unit
Partially contracted basis set               ... off
Rotationally invariant grid construction     ... off

Total number of grid points                  ...     2337
Total number of batches                      ...       38
Average number of points per batch           ...       61
Average number of grid points per atom       ...      584

CP-SCF GRIDX
------------

General Integration Accuracy     IntAcc      ... 3.067
Radial Grid Type                 RadialGrid  ... OptM3 with GC (2021)
Angular Grid (max. ang.)         AngularGrid ... 1 (Lebedev-50)
Angular grid pruning method      GridPruning ... 4 (adaptive)
Weight generation scheme         WeightScheme... Becke
Basis function cutoff            BFCut       ... 1.0000e-10
Integration weight cutoff        WCut        ... 1.0000e-14
Angular grids for H and He will be reduced by one unit
Partially contracted basis set               ... on
Rotationally invariant grid construction     ... off

Total number of grid points                  ...     1070
Total number of batches                      ...       20
Average number of points per batch           ...       53
Average number of grid points per atom       ...      268

Memory available               ... 967.6 MB
Memory needed per perturbation ...   0.4 MB
Perturbations treated per batch... 3
Number of batches              ... 1
     CP-SCF ITERATION   0:   1.0951e+00 (   0.1 sec   0/  3 done)
     CP-SCF ITERATION   1:   3.8986e-02 (   0.1 sec   0/  3 done)
     CP-SCF ITERATION   2:   2.8235e-03 (   0.1 sec   1/  3 done)
     CP-SCF ITERATION   3:   1.1822e-04 (   0.1 sec   3/  3 done)
                    *** THE CP-SCF HAS CONVERGED ***

Forming final perturbed densities           ... done
Transforming perturbed density to AO basis  ... done

 Raw HFC matrix (all values in MHz): 
 -----------------------------------
                 1.3437               1.1006             -11.0133
                 1.1006               2.5387             -20.8997
               -11.0133             -20.8997             239.6817

 A(FC)          81.3026              81.3026              81.3026
 A(SD)         -80.5153             -80.2127             160.7280
 A(ORB+DIA)     -0.1647              -0.1669              -0.0122    A(PC) =  -0.1146
 A(ORB)         -0.1651              -0.1673              -0.0121    A(PC) =  -0.1148
 A(DIA)          0.0004               0.0004              -0.0001    A(PC) =   0.0002
             ----------           ----------           ----------
 A(Tot)          0.6227               0.9230             242.0184    A(iso)=   81.1880
 Orientation: 
  X           0.5409812            0.8397792           -0.0459361
  Y          -0.8396361            0.5361269           -0.0870585
  Z          -0.0484824            0.0856666            0.9951436

Notes:  (1) The A matrix conforms to the "SAI" spin Hamiltonian convention.
        (2) Tensor is right-handed.


--------------------------------------------------------------------------------
----------------------------------------------------------------------------
                           ORCA EULER ANGLE PROGRAM
----------------------------------------------------------------------------

Only g-tensor available        -->  using g-tensor as reference tensor

Reference tensor               ...  g

g-tensor ordering              ...  |g_min> --> |gx>
                                    |g_mid> --> |gy>
                                    |g_max> --> |gz>

A- and EFG-tensor ordering     ...  the axes |Ax>, |Qx>, |Ay>, etc. are assigned
                                    such that the Euler rotation is minimal. You
                                    can find the respective eigenvalues as Ax,
                                    EFGx, Ay, etc. in the tables below.
                                    The relation of |Ax>, |Ay>,  etc. to Amin, Amid, etc.
                                    (as printed in the ORCA EPR/NMR CALCULATION Output)
                                    is obtained in the detailed printout.

Euler rotation around          ...  z - y - z
   First rotation              -->  by alpha around z
   Second rotation             -->  by beta around y'
   Third rotation              -->  by gamma around z''
   Positive / Negative angle   -->  clockwise / counterclockwise rotation

Plot EFG-tensors                    (-)
Plot HFC-tensors                    (-)
Detailed Printout                   (-)

-------------------------------------------------------------------------
          Euler rotation of hyperfine tensor to g-tensor
-------------------------------------------------------------------------

-------------------------------------------------------------------
 Atom  |   Alpha    Beta    Gamma   |   Ax       Ay       Az 
       |          [degrees]         |           [MHz]         
-------------------------------------------------------------------
  1H       89.6     41.0    -90.7     -63.19   -26.03  -105.15
  2H      -89.5     22.7     89.3     -63.07   -25.70  -103.68
  3H       93.3      7.2    -94.0     -65.23  -105.49   -27.79
  0C      -90.0     17.1     89.3     242.02     0.92     0.62
-------------------------------------------------------------------


Maximum memory used throughout the entire EPRNMR-calculation: 67.6 MB

Timings for individual modules:

Sum of individual times         ...       17.433 sec (=   0.291 min)
GTO integral calculation        ...        2.598 sec (=   0.043 min)  14.9 %
Spin-Orbit-Coupling Matrices    ...        2.163 sec (=   0.036 min)  12.4 %
SCF iterations                  ...        6.974 sec (=   0.116 min)  40.0 %
EPR/NMR calculation             ...        5.699 sec (=   0.095 min)  32.7 %
                             ****ORCA TERMINATED NORMALLY****
TOTAL RUN TIME: 0 days 0 hours 0 minutes 19 seconds 907 msec
