Job execution start: Mon Oct 24 16:43:21 CEST 2022
Shared library path: /home/cs681498/orca:/opt/MPI/openmpi-4.1.1/linux/gcc_4.8.5/lib:/opt/MPI/openmpi-4.1.1/linux/gcc_4.8.5/lib/lib32
Slurm Job ID is: 30556330
Slurm Job name is: 9128
ncm0316

                                 *****************
                                 * O   R   C   A *
                                 *****************

                                            #,                                       
                                            ###                                      
                                            ####                                     
                                            #####                                    
                                            ######                                   
                                           ########,                                 
                                     ,,################,,,,,                         
                               ,,#################################,,                 
                          ,,##########################################,,             
                       ,#########################################, ''#####,          
                    ,#############################################,,   '####,        
                  ,##################################################,,,,####,       
                ,###########''''           ''''###############################       
              ,#####''   ,,,,##########,,,,          '''####'''          '####       
            ,##' ,,,,###########################,,,                        '##       
           ' ,,###''''                  '''############,,,                           
         ,,##''                                '''############,,,,        ,,,,,,###''
      ,#''                                            '''#######################'''  
     '                                                          ''''####''''         
             ,#######,   #######,   ,#######,      ##                                
            ,#'     '#,  ##    ##  ,#'     '#,    #''#        ######   ,####,        
            ##       ##  ##   ,#'  ##            #'  '#       #        #'  '#        
            ##       ##  #######   ##           ,######,      #####,   #    #        
            '#,     ,#'  ##    ##  '#,     ,#' ,#      #,         ##   #,  ,#        
             '#######'   ##     ##  '#######'  #'      '#     #####' # '####'        



                  #######################################################
                  #                        -***-                        #
                  #          Department of theory and spectroscopy      #
                  #    Directorship and core code : Frank Neese         #
                  #        Max Planck Institute fuer Kohlenforschung    #
                  #                Kaiser Wilhelm Platz 1               #
                  #                 D-45470 Muelheim/Ruhr               #
                  #                      Germany                        #
                  #                                                     #
                  #                  All rights reserved                #
                  #                        -***-                        #
                  #######################################################


                         Program Version 5.0.3 -  RELEASE  -


 With contributions from (in alphabetic order):
   Daniel Aravena         : Magnetic Suceptibility
   Michael Atanasov       : Ab Initio Ligand Field Theory (pilot matlab implementation)
   Alexander A. Auer      : GIAO ZORA, VPT2 properties, NMR spectrum
   Ute Becker             : Parallelization
   Giovanni Bistoni       : ED, misc. LED, open-shell LED, HFLD
   Martin Brehm           : Molecular dynamics
   Dmytro Bykov           : SCF Hessian
   Vijay G. Chilkuri      : MRCI spin determinant printing, contributions to CSF-ICE
   Dipayan Datta          : RHF DLPNO-CCSD density
   Achintya Kumar Dutta   : EOM-CC, STEOM-CC
   Dmitry Ganyushin       : Spin-Orbit,Spin-Spin,Magnetic field MRCI
   Miquel Garcia          : C-PCM and meta-GGA Hessian, CC/C-PCM, Gaussian charge scheme
   Yang Guo               : DLPNO-NEVPT2, F12-NEVPT2, CIM, IAO-localization
   Andreas Hansen         : Spin unrestricted coupled pair/coupled cluster methods
   Benjamin Helmich-Paris : MC-RPA, TRAH-SCF, COSX integrals
   Lee Huntington         : MR-EOM, pCC
   Robert Izsak           : Overlap fitted RIJCOSX, COSX-SCS-MP3, EOM
   Marcus Kettner         : VPT2
   Christian Kollmar      : KDIIS, OOCD, Brueckner-CCSD(T), CCSD density, CASPT2, CASPT2-K
   Simone Kossmann        : Meta GGA functionals, TD-DFT gradient, OOMP2, MP2 Hessian
   Martin Krupicka        : Initial AUTO-CI
   Lucas Lang             : DCDCAS
   Marvin Lechner         : AUTO-CI (C++ implementation), FIC-MRCC
   Dagmar Lenk            : GEPOL surface, SMD
   Dimitrios Liakos       : Extrapolation schemes; Compound Job, initial MDCI parallelization
   Dimitrios Manganas     : Further ROCIS development; embedding schemes
   Dimitrios Pantazis     : SARC Basis sets
   Anastasios Papadopoulos: AUTO-CI, single reference methods and gradients
   Taras Petrenko         : DFT Hessian,TD-DFT gradient, ASA, ECA, R-Raman, ABS, FL, XAS/XES, NRVS
   Peter Pinski           : DLPNO-MP2, DLPNO-MP2 Gradient
   Christoph Reimann      : Effective Core Potentials
   Marius Retegan         : Local ZFS, SOC
   Christoph Riplinger    : Optimizer, TS searches, QM/MM, DLPNO-CCSD(T), (RO)-DLPNO pert. Triples
   Tobias Risthaus        : Range-separated hybrids, TD-DFT gradient, RPA, STAB
   Michael Roemelt        : Original ROCIS implementation
   Masaaki Saitow         : Open-shell DLPNO-CCSD energy and density
   Barbara Sandhoefer     : DKH picture change effects
   Avijit Sen             : IP-ROCIS
   Kantharuban Sivalingam : CASSCF convergence, NEVPT2, FIC-MRCI
   Bernardo de Souza      : ESD, SOC TD-DFT
   Georgi Stoychev        : AutoAux, RI-MP2 NMR, DLPNO-MP2 response
   Willem Van den Heuvel  : Paramagnetic NMR
   Boris Wezisla          : Elementary symmetry handling
   Frank Wennmohs         : Technical directorship


 We gratefully acknowledge several colleagues who have allowed us to
 interface, adapt or use parts of their codes:
   Stefan Grimme, W. Hujo, H. Kruse, P. Pracht,  : VdW corrections, initial TS optimization,
                  C. Bannwarth, S. Ehlert          DFT functionals, gCP, sTDA/sTD-DF
   Ed Valeev, F. Pavosevic, A. Kumar             : LibInt (2-el integral package), F12 methods
   Garnet Chan, S. Sharma, J. Yang, R. Olivares  : DMRG
   Ulf Ekstrom                                   : XCFun DFT Library
   Mihaly Kallay                                 : mrcc  (arbitrary order and MRCC methods)
   Jiri Pittner, Ondrej Demel                    : Mk-CCSD
   Frank Weinhold                                : gennbo (NPA and NBO analysis)
   Christopher J. Cramer and Donald G. Truhlar   : smd solvation model
   Lars Goerigk                                  : TD-DFT with DH, B97 family of functionals
   V. Asgeirsson, H. Jonsson                     : NEB implementation
   FAccTs GmbH                                   : IRC, NEB, NEB-TS, DLPNO-Multilevel, CI-OPT
                                                   MM, QMMM, 2- and 3-layer-ONIOM, Crystal-QMMM,
                                                   LR-CPCM, SF, NACMEs, symmetry and pop. for TD-DFT,
                                                   nearIR, NL-DFT gradient (VV10), updates on ESD,
                                                   ML-optimized integration grids
   S Lehtola, MJT Oliveira, MAL Marques          : LibXC Library
   Liviu Ungur et al                             : ANISO software


 Your calculation uses the libint2 library for the computation of 2-el integrals
 For citations please refer to: http://libint.valeyev.net

 Your ORCA version has been built with support for libXC version: 5.1.0
 For citations please refer to: https://tddft.org/programs/libxc/

 This ORCA versions uses:
   CBLAS   interface :  Fast vector & matrix operations
   LAPACKE interface :  Fast linear algebra routines
   SCALAPACK package :  Parallel linear algebra routines
   Shared memory     :  Shared parallel matrices
   BLAS/LAPACK       :  OpenBLAS 0.3.15  USE64BITINT DYNAMIC_ARCH NO_AFFINITY SkylakeX SINGLE_THREADED
        Core in use  :  SkylakeX
   Copyright (c) 2011-2014, The OpenBLAS Project


================================================================================

----- Orbital basis set information -----
Your calculation utilizes the basis: EPR-III
   V. Barone, in Recent Advances in Density Functional Methods, Part 1 (ed. D. P. Chong), World Scientific, Singapore, 1995, p. 287.
   N. Rega, M. Cossi and V. Barone, J. Chem. Phys. 105, 11060 (1996).

----- AuxJ basis set information -----
Your calculation utilizes the AutoAux generation procedure.
  G. L. Stoychev, A. A. Auer, F. Neese, J. Chem. Theory Comput. 13, 554 (2017)

----- AuxC basis set information -----
Your calculation utilizes the AutoAux generation procedure.
  G. L. Stoychev, A. A. Auer, F. Neese, J. Chem. Theory Comput. 13, 554 (2017)

----- AuxJK basis set information -----
Your calculation utilizes the AutoAux generation procedure.
  G. L. Stoychev, A. A. Auer, F. Neese, J. Chem. Theory Comput. 13, 554 (2017)

================================================================================
                                        WARNINGS
                       Please study these warnings very carefully!
================================================================================


WARNING: your system is open-shell and RHF/RKS was chosen
  ===> : WILL SWITCH to UHF/UKS


INFO   : the flag for use of the SHARK integral package has been found!

================================================================================
                                       INPUT FILE
================================================================================
NAME = /home/rwth0701/scratch/cs681498/orcajob__30556330-ZkD8/9128.inp
|  1> !B3LYP EPR-III Autoaux
|  2> !PAL4
|  3> 
|  4> * xyz 0 2
|  5>  C    -31.4996210755    -50.5085524615    -18.5040301548
|  6>  H    -32.1796861601    -49.6702867470    -18.6026994152
|  7>  H    -31.9704970663    -51.5708535247    -18.4835315911
|  8>  H    -30.4531068913    -50.2573680028    -18.4066316349
|  9> *
| 10> 
| 11> %EPRNMR
| 12>         GTENSOR   TRUE
| 13>         NUCLEI    = ALL H {AISO, ADIP, AORB}
| 14>         NUCLEI    = ALL C {AISO, ADIP, AORB}
| 15> END
| 16> 
| 17> 
| 18>                          ****END OF INPUT****
================================================================================

                       ****************************
                       * Single Point Calculation *
                       ****************************

---------------------------------
CARTESIAN COORDINATES (ANGSTROEM)
---------------------------------
  C    -31.499621  -50.508552  -18.504030
  H    -32.179686  -49.670287  -18.602699
  H    -31.970497  -51.570854  -18.483532
  H    -30.453107  -50.257368  -18.406632

----------------------------
CARTESIAN COORDINATES (A.U.)
----------------------------
  NO LB      ZA    FRAG     MASS         X           Y           Z
   0 C     6.0000    0    12.011  -59.525657  -95.447332  -34.967549
   1 H     1.0000    0     1.008  -60.810794  -93.863239  -35.154007
   2 H     1.0000    0     1.008  -60.415484  -97.454790  -34.928813
   3 H     1.0000    0     1.008  -57.548032  -94.972662  -34.783493

--------------------------------
INTERNAL COORDINATES (ANGSTROEM)
--------------------------------
 C      0   0   0     0.000000000000     0.00000000     0.00000000
 H      1   0   0     1.083934292449     0.00000000     0.00000000
 H      1   2   0     1.162165194239   117.01991644     0.00000000
 H      1   2   3     1.080635017803   115.85142057   181.69450956

---------------------------
INTERNAL COORDINATES (A.U.)
---------------------------
 C      0   0   0     0.000000000000     0.00000000     0.00000000
 H      1   0   0     2.048338959894     0.00000000     0.00000000
 H      1   2   0     2.196173939488   117.01991644     0.00000000
 H      1   2   3     2.042104234374   115.85142057   181.69450956

---------------------
BASIS SET INFORMATION
---------------------
There are 2 groups of distinct atoms

 Group   1 Type C   : 12s8p2d1f contracted to 8s5p2d1f pattern {51111111/41111/11/1}
 Group   2 Type H   : 7s2p contracted to 5s2p pattern {31111/11}

Atom   0C    basis set group =>   1
Atom   1H    basis set group =>   2
Atom   2H    basis set group =>   2
Atom   3H    basis set group =>   2
---------------------------------
AUXILIARY/J BASIS SET INFORMATION
---------------------------------
There are 2 groups of distinct atoms

 Group   1 Type C   : 20s17p16d8f3g contracted to 20s17p16d8f3g pattern {11111111111111111111/11111111111111111/1111111111111111/11111111/111}
 Group   2 Type H   : 17s7p3d contracted to 17s7p3d pattern {11111111111111111/1111111/111}

Atom   0C    basis set group =>   1
Atom   1H    basis set group =>   2
Atom   2H    basis set group =>   2
Atom   3H    basis set group =>   2
---------------------------------
AUXILIARY/C BASIS SET INFORMATION
---------------------------------
There are 2 groups of distinct atoms

 Group   1 Type C   : 20s17p16d8f3g contracted to 20s17p16d8f3g pattern {11111111111111111111/11111111111111111/1111111111111111/11111111/111}
 Group   2 Type H   : 17s7p3d contracted to 17s7p3d pattern {11111111111111111/1111111/111}

Atom   0C    basis set group =>   1
Atom   1H    basis set group =>   2
Atom   2H    basis set group =>   2
Atom   3H    basis set group =>   2
----------------------------------
AUXILIARY/JK BASIS SET INFORMATION
----------------------------------
There are 2 groups of distinct atoms

 Group   1 Type C   : 20s17p16d8f3g contracted to 20s17p16d8f3g pattern {11111111111111111111/11111111111111111/1111111111111111/11111111/111}
 Group   2 Type H   : 17s7p3d contracted to 17s7p3d pattern {11111111111111111/1111111/111}

Atom   0C    basis set group =>   1
Atom   1H    basis set group =>   2
Atom   2H    basis set group =>   2
Atom   3H    basis set group =>   2


           ************************************************************
           *        Program running with 4 parallel MPI-processes     *
           *              working on a common directory               *
           ************************************************************
------------------------------------------------------------------------------
                           ORCA GTO INTEGRAL CALCULATION
                           -- RI-GTO INTEGRALS CHOSEN --
------------------------------------------------------------------------------
------------------------------------------------------------------------------
                   ___                                                        
                  /   \      - P O W E R E D   B Y -                         
                 /     \                                                     
                 |  |  |   _    _      __       _____    __    __             
                 |  |  |  | |  | |    /  \     |  _  \  |  |  /  |          
                  \  \/   | |  | |   /    \    | | | |  |  | /  /          
                 / \  \   | |__| |  /  /\  \   | |_| |  |  |/  /          
                |  |  |   |  __  | /  /__\  \  |    /   |      \           
                |  |  |   | |  | | |   __   |  |    \   |  |\   \          
                \     /   | |  | | |  |  |  |  | |\  \  |  | \   \       
                 \___/    |_|  |_| |__|  |__|  |_| \__\ |__|  \__/        
                                                                              
                      - O R C A' S   B I G   F R I E N D -                    
                                      &                                       
                       - I N T E G R A L  F E E D E R -                       
                                                                              
 v1 FN, 2020, v2 2021                                                         
------------------------------------------------------------------------------


Reading SHARK input file /home/rwth0701/scratch/cs681498/orcajob__30556330-ZkD8/9128.SHARKINP.tmp ... ok
----------------------
SHARK INTEGRAL PACKAGE
----------------------

Number of atoms                             ...      4
Number of basis functions                   ...     73
Number of shells                            ...     37
Maximum angular momentum                    ...      3
Integral batch strategy                     ... SHARK/LIBINT Hybrid
RI-J (if used) integral strategy            ... SPLIT-RIJ (Revised 2003 algorithm where possible)
Printlevel                                  ...      1
Contraction scheme used                     ... SEGMENTED contraction
Coulomb Range Separation                    ... NOT USED
Exchange Range Separation                   ... NOT USED
Finite Nucleus Model                        ... NOT USED
Auxiliary Coulomb fitting basis             ... AVAILABLE
   # of basis functions in Aux-J            ...    393
   # of shells in Aux-J                     ...    145
   Maximum angular momentum in Aux-J        ...      4
Auxiliary J/K fitting basis                 ... AVAILABLE
   # of basis functions in Aux-JK           ...    393
   # of shells in Aux-JK                    ...    145
   Maximum angular momentum in Aux-JK       ...      4
Auxiliary Correlation fitting basis         ... AVAILABLE
   # of basis functions in Aux-C            ...    393
   # of shells in Aux-C                     ...    145
   Maximum angular momentum in Aux-C        ...      4
Auxiliary 'external' fitting basis          ... NOT available
Integral threshold                          ...     1.000000e-10
Primitive cut-off                           ...     1.000000e-11
Primitive pair pre-selection threshold      ...     1.000000e-11

Calculating pre-screening integrals         ... done (  0.0 sec) Dimension = 37
Organizing shell pair data                  ... done (  0.0 sec)
Shell pair information
Total number of shell pairs                 ...       703
Shell pairs after pre-screening             ...       688
Total number of primitive shell pairs       ...      1300
Primitive shell pairs kept                  ...      1182
          la=0 lb=0:    261 shell pairs
          la=1 lb=0:    253 shell pairs
          la=1 lb=1:     66 shell pairs
          la=2 lb=0:     46 shell pairs
          la=2 lb=1:     22 shell pairs
          la=2 lb=2:      3 shell pairs
          la=3 lb=0:     23 shell pairs
          la=3 lb=1:     11 shell pairs
          la=3 lb=2:      2 shell pairs
          la=3 lb=3:      1 shell pairs

Calculating one electron integrals          ... done (  0.0 sec)
Calculating RI/J V-Matrix + Cholesky decomp.... done (  0.2 sec)
Calculating RI/JK V-Matrix + Cholesky decomp... done (  0.1 sec)
Calculating RI/C V-Matrix + Cholesky decomp.... done (  0.1 sec)
Calculating Nuclear repulsion               ... done (  0.0 sec) ENN=      9.427590050359 Eh

SHARK setup successfully completed in   0.9 seconds

Maximum memory used throughout the entire GTOINT-calculation: 13.7 MB


           ************************************************************
           *        Program running with 4 parallel MPI-processes     *
           *              working on a common directory               *
           ************************************************************
-------------------------------------------------------------------------------
                                 ORCA SCF
-------------------------------------------------------------------------------

------------
SCF SETTINGS
------------
Hamiltonian:
 Density Functional     Method          .... DFT(GTOs)
 Exchange Functional    Exchange        .... B88
   X-Alpha parameter    XAlpha          ....  0.666667
   Becke's b parameter  XBeta           ....  0.004200
 Correlation Functional Correlation     .... LYP
 LDA part of GGA corr.  LDAOpt          .... VWN-5
 Gradients option       PostSCFGGA      .... off
 Hybrid DFT is turned on
   Fraction HF Exchange ScalHFX         ....  0.200000
   Scaling of DF-GGA-X  ScalDFX         ....  0.720000
   Scaling of DF-GGA-C  ScalDFC         ....  0.810000
   Scaling of DF-LDA-C  ScalLDAC        ....  1.000000
   Perturbative correction              ....  0.000000
   Density functional embedding theory  .... OFF
   NL short-range parameter             ....  4.800000
 RI-approximation to the Coulomb term is turned on
   Number of AuxJ basis functions       .... 393
   RIJ-COSX (HFX calculated with COS-X)).... on


General Settings:
 Integral files         IntName         .... /home/rwth0701/scratch/cs681498/orcajob__30556330-ZkD8/9128
 Hartree-Fock type      HFTyp           .... UHF
 Total Charge           Charge          ....    0
 Multiplicity           Mult            ....    2
 Number of Electrons    NEL             ....    9
 Basis Dimension        Dim             ....   73
 Nuclear Repulsion      ENuc            ....      9.4275900504 Eh

Convergence Acceleration:
 DIIS                   CNVDIIS         .... on
   Start iteration      DIISMaxIt       ....    12
   Startup error        DIISStart       ....  0.200000
   # of expansion vecs  DIISMaxEq       ....     5
   Bias factor          DIISBfac        ....   1.050
   Max. coefficient     DIISMaxC        ....  10.000
 Trust-Rad. Augm. Hess. CNVTRAH         .... auto
   Auto Start mean grad. ratio tolernc. ....  1.125000
   Auto Start start iteration           ....    20
   Auto Start num. interpolation iter.  ....    10
   Max. Number of Micro iterations      ....    16
   Max. Number of Macro iterations      .... Maxiter - #DIIS iter
   Number of Davidson start vectors     ....     2
   Converg. threshold I  (grad. norm)   ....   5.000e-05
   Converg. threshold II (energy diff.) ....   1.000e-06
   Grad. Scal. Fac. for Micro threshold ....   0.100
   Minimum threshold for Micro iter.    ....   0.010
   NR start threshold (gradient norm)   ....   0.001
   Initial trust radius                 ....   0.400
   Minimum AH scaling param. (alpha)    ....   1.000
   Maximum AH scaling param. (alpha)    .... 1000.000
   Orbital update algorithm             .... Taylor
   White noise on init. David. guess    .... on
   Maximum white noise                  ....   0.010
   Quad. conv. algorithm                .... NR
 SOSCF                  CNVSOSCF        .... off
 Level Shifting         CNVShift        .... on
   Level shift para.    LevelShift      ....    0.2500
   Turn off err/grad.   ShiftErr        ....    0.0010
 Zerner damping         CNVZerner       .... off
 Static damping         CNVDamp         .... on
   Fraction old density DampFac         ....    0.7000
   Max. Damping (<1)    DampMax         ....    0.9800
   Min. Damping (>=0)   DampMin         ....    0.0000
   Turn off err/grad.   DampErr         ....    0.1000
 Fernandez-Rico         CNVRico         .... off

SCF Procedure:
 Maximum # iterations   MaxIter         ....   125
 SCF integral mode      SCFMode         .... Direct
   Integral package                     .... SHARK and LIBINT hybrid scheme
 Reset frequency        DirectResetFreq ....    20
 Integral Threshold     Thresh          ....  1.000e-10 Eh
 Primitive CutOff       TCut            ....  1.000e-11 Eh

Convergence Tolerance:
 Convergence Check Mode ConvCheckMode   .... Total+1el-Energy
 Convergence forced     ConvForced      .... 0
 Energy Change          TolE            ....  1.000e-06 Eh
 1-El. energy change                    ....  1.000e-03 Eh
 DIIS Error             TolErr          ....  1.000e-06


Diagonalization of the overlap matrix:
Smallest eigenvalue                        ... 1.715e-03
Time for diagonalization                   ...    0.002 sec
Threshold for overlap eigenvalues          ... 1.000e-08
Number of eigenvalues below threshold      ... 0
Time for construction of square roots      ...    0.011 sec
Total time needed                          ...    0.013 sec

Time for model grid setup =    0.070 sec

------------------------------
INITIAL GUESS: MODEL POTENTIAL
------------------------------
Loading Hartree-Fock densities                     ... done
Calculating cut-offs                               ... done
Initializing the effective Hamiltonian             ... done
Setting up the integral package (SHARK)            ... done
Starting the Coulomb interaction                   ... done (   0.1 sec)
Reading the grid                                   ... done
Mapping shells                                     ... done
Starting the XC term evaluation                    ... done (   0.0 sec)
  promolecular density results
     # of electrons  =      8.998570286
     EX              =     -5.957896742
     EC              =     -0.259333840
     EX+EC           =     -6.217230582
Transforming the Hamiltonian                       ... done (   0.0 sec)
Diagonalizing the Hamiltonian                      ... done (   0.0 sec)
Back transforming the eigenvectors                 ... done (   0.0 sec)
Now organizing SCF variables                       ... done
                      ------------------
                      INITIAL GUESS DONE (   0.2 sec)
                      ------------------
-------------------
DFT GRID GENERATION
-------------------

General Integration Accuracy     IntAcc      ... 4.388
Radial Grid Type                 RadialGrid  ... OptM3 with GC (2021)
Angular Grid (max. ang.)         AngularGrid ... 4 (Lebedev-302)
Angular grid pruning method      GridPruning ... 4 (adaptive)
Weight generation scheme         WeightScheme... Becke
Basis function cutoff            BFCut       ... 1.0000e-10
Integration weight cutoff        WCut        ... 1.0000e-14
Angular grids for H and He will be reduced by one unit
Partially contracted basis set               ... off
Rotationally invariant grid construction     ... off

Total number of grid points                  ...    17054
Total number of batches                      ...      268
Average number of points per batch           ...       63
Average number of grid points per atom       ...     4264
Time for grid setup =    0.212 sec

--------------------
COSX GRID GENERATION
--------------------

GRIDX 1
-------
General Integration Accuracy     IntAcc      ... 3.816
Radial Grid Type                 RadialGrid  ... OptM3 with GC (2021)
Angular Grid (max. ang.)         AngularGrid ... 1 (Lebedev-50)
Angular grid pruning method      GridPruning ... 4 (adaptive)
Weight generation scheme         WeightScheme... Becke
Basis function cutoff            BFCut       ... 1.0000e-10
Integration weight cutoff        WCut        ... 1.0000e-14
Angular grids for H and He will be reduced by one unit
Partially contracted basis set               ... on
Rotationally invariant grid construction     ... off

Total number of grid points                  ...     2146
Total number of batches                      ...       35
Average number of points per batch           ...       61
Average number of grid points per atom       ...      536
UseSFitting                                  ... on

GRIDX 2
-------
General Integration Accuracy     IntAcc      ... 4.020
Radial Grid Type                 RadialGrid  ... OptM3 with GC (2021)
Angular Grid (max. ang.)         AngularGrid ... 2 (Lebedev-110)
Angular grid pruning method      GridPruning ... 4 (adaptive)
Weight generation scheme         WeightScheme... Becke
Basis function cutoff            BFCut       ... 1.0000e-10
Integration weight cutoff        WCut        ... 1.0000e-14
Angular grids for H and He will be reduced by one unit
Partially contracted basis set               ... on
Rotationally invariant grid construction     ... off

Total number of grid points                  ...     5043
Total number of batches                      ...       81
Average number of points per batch           ...       62
Average number of grid points per atom       ...     1261
UseSFitting                                  ... on

GRIDX 3
-------
General Integration Accuracy     IntAcc      ... 4.338
Radial Grid Type                 RadialGrid  ... OptM3 with GC (2021)
Angular Grid (max. ang.)         AngularGrid ... 3 (Lebedev-194)
Angular grid pruning method      GridPruning ... 4 (adaptive)
Weight generation scheme         WeightScheme... Becke
Basis function cutoff            BFCut       ... 1.0000e-10
Integration weight cutoff        WCut        ... 1.0000e-14
Angular grids for H and He will be reduced by one unit
Partially contracted basis set               ... on
Rotationally invariant grid construction     ... off

Total number of grid points                  ...    11727
Total number of batches                      ...      186
Average number of points per batch           ...       63
Average number of grid points per atom       ...     2932
UseSFitting                                  ... on

Time for X-Grid setup             =    0.295 sec

--------------
SCF ITERATIONS
--------------
ITER       Energy         Delta-E        Max-DP      RMS-DP      [F,P]     Damp
               ***  Starting incremental Fock matrix formation  ***
  0    -39.7854533434   0.000000000000 0.01452055  0.00048167  0.0850676 0.7000
  1    -39.8025991037  -0.017145760352 0.00908254  0.00036035  0.0447944 0.7000
                               ***Turning on DIIS***
  2    -39.8101274311  -0.007528327360 0.01619115  0.00062745  0.0182014 0.0000
  3    -39.8204206632  -0.010293232104 0.00834098  0.00027339  0.0273687 0.0000
  4    -39.8236381772  -0.003217513983 0.00292988  0.00007681  0.0056167 0.0000
  5    -39.8237690726  -0.000130895400 0.00106119  0.00003311  0.0018989 0.0000
  6    -39.8237871749  -0.000018102393 0.00089571  0.00002625  0.0008122 0.0000
               *** Restarting incremental Fock matrix formation ***
                                   *** Resetting DIIS ***
  7    -39.8237967505  -0.000009575520 0.00008409  0.00000302  0.0001037 0.0000
                 **** Energy Check signals convergence ****

               *****************************************************
               *                     SUCCESS                       *
               *           SCF CONVERGED AFTER   8 CYCLES          *
               *****************************************************

Old exchange energy                            =     -1.234840622 Eh
New exchange energy                            =     -1.234840817 Eh
Exchange energy change after final integration =     -0.000000195 Eh
Total energy after final integration           =    -39.823797036 Eh
Final COS-X integration done in                =     0.176 sec

----------------
TOTAL SCF ENERGY
----------------

Total Energy       :          -39.82379704 Eh           -1083.66061 eV

Components:
Nuclear Repulsion  :            9.42759005 Eh             256.53777 eV
Electronic Energy  :          -49.25138709 Eh           -1340.19838 eV
One Electron Energy:          -71.19141968 Eh           -1937.21702 eV
Two Electron Energy:           21.94003259 Eh             597.01864 eV
Max COSX asymmetry :            0.00000006 Eh               0.00000 eV

Virial components:
Potential Energy   :          -79.33751993 Eh           -2158.88367 eV
Kinetic Energy     :           39.51372289 Eh            1075.22306 eV
Virial Ratio       :            2.00784725


DFT components:
N(Alpha)           :        4.999999293660 electrons
N(Beta)            :        4.000000157433 electrons
N(Total)           :        8.999999451093 electrons
E(X)               :       -4.889752389629 Eh       
E(C)               :       -0.308278316092 Eh       
E(XC)              :       -5.198030705721 Eh       
DFET-embed. en.    :        0.000000000000 Eh       

---------------
SCF CONVERGENCE
---------------

  Last Energy change         ...   -9.0815e-08  Tolerance :   1.0000e-06
  Last MAX-Density change    ...    0.0000e+00  Tolerance :   1.0000e-05
  Last RMS-Density change    ...    0.0000e+00  Tolerance :   1.0000e-06
  Last DIIS Error            ...    5.6743e-05  Tolerance :   1.0000e-06

             **** THE GBW FILE WAS UPDATED (/home/rwth0701/scratch/cs681498/orcajob__30556330-ZkD8/9128.gbw) ****
             **** DENSITY /home/rwth0701/scratch/cs681498/orcajob__30556330-ZkD8/9128.scfp WAS UPDATED ****
             **** ENERGY FILE WAS UPDATED (/home/rwth0701/scratch/cs681498/orcajob__30556330-ZkD8/9128.en.tmp) ****
----------------------
UHF SPIN CONTAMINATION
----------------------

Warning: in a DFT calculation there is little theoretical justification to 
         calculate <S**2> as in Hartree-Fock theory. We will do it anyways
         but you should keep in mind that the values have only limited relevance

Expectation value of <S**2>     :     0.753971
Ideal value S*(S+1) for S=0.5   :     0.750000
Deviation                       :     0.003971

             **** THE GBW FILE WAS UPDATED (/home/rwth0701/scratch/cs681498/orcajob__30556330-ZkD8/9128.gbw) ****
             **** DENSITY /home/rwth0701/scratch/cs681498/orcajob__30556330-ZkD8/9128.scfp WAS UPDATED ****
----------------
ORBITAL ENERGIES
----------------
                 SPIN UP ORBITALS
  NO   OCC          E(Eh)            E(eV) 
   0   1.0000     -10.192527      -277.3528 
   1   1.0000      -0.680883       -18.5278 
   2   1.0000      -0.424094       -11.5402 
   3   1.0000      -0.408567       -11.1177 
   4   1.0000      -0.234850        -6.3906 
   5   0.0000      -0.000291        -0.0079 
   6   0.0000       0.035493         0.9658 
   7   0.0000       0.037698         1.0258 
   8   0.0000       0.047343         1.2883 
   9   0.0000       0.078709         2.1418 
  10   0.0000       0.092007         2.5037 
  11   0.0000       0.094795         2.5795 
  12   0.0000       0.219487         5.9725 
  13   0.0000       0.227049         6.1783 
  14   0.0000       0.244976         6.6661 
  15   0.0000       0.275686         7.5018 
  16   0.0000       0.289580         7.8799 
  17   0.0000       0.306447         8.3389 
  18   0.0000       0.336504         9.1568 
  19   0.0000       0.545952        14.8561 
  20   0.0000       0.563816        15.3422 
  21   0.0000       0.738314        20.0905 
  22   0.0000       0.749132        20.3849 
  23   0.0000       0.772364        21.0171 
  24   0.0000       0.813888        22.1470 
  25   0.0000       0.868731        23.6394 
  26   0.0000       0.892521        24.2867 
  27   0.0000       0.939670        25.5697 
  28   0.0000       0.946211        25.7477 
  29   0.0000       1.054566        28.6962 
  30   0.0000       1.073157        29.2021 
  31   0.0000       1.101682        29.9783 
  32   0.0000       1.158329        31.5197 
  33   0.0000       1.162304        31.6279 
  34   0.0000       1.445908        39.3452 
  35   0.0000       1.447223        39.3809 
  36   0.0000       1.485704        40.4281 
  37   0.0000       1.704205        46.3738 
  38   0.0000       1.714900        46.6648 
  39   0.0000       1.740336        47.3569 
  40   0.0000       2.722810        74.0914 
  41   0.0000       2.737162        74.4820 
  42   0.0000       2.881309        78.4044 
  43   0.0000       2.895322        78.7857 
  44   0.0000       2.941956        80.0547 
  45   0.0000       2.962346        80.6095 
  46   0.0000       2.971978        80.8716 
  47   0.0000       3.147501        85.6478 
  48   0.0000       3.170394        86.2708 
  49   0.0000       3.249981        88.4365 
  50   0.0000       3.265539        88.8598 
  51   0.0000       3.637920        98.9928 
  52   0.0000       3.718399       101.1828 
  53   0.0000       3.786759       103.0430 
  54   0.0000       3.895767       106.0092 
  55   0.0000       3.913379       106.4885 
  56   0.0000       4.037291       109.8603 
  57   0.0000       4.084452       111.1436 
  58   0.0000       4.092547       111.3639 
  59   0.0000       4.112775       111.9143 
  60   0.0000       4.557795       124.0239 
  61   0.0000       4.990732       135.8047 
  62   0.0000       5.245414       142.7350 
  63   0.0000       5.391583       146.7124 
  64   0.0000       5.488051       149.3375 
  65   0.0000       6.005183       163.4093 
  66   0.0000       6.103819       166.0933 
  67   0.0000       7.661730       208.4863 
  68   0.0000      29.026953       789.8635 
  69   0.0000      37.047297      1008.1082 
  70   0.0000      37.200662      1012.2815 
  71   0.0000      37.209218      1012.5143 
  72   0.0000     133.475097      3632.0420 

                 SPIN DOWN ORBITALS
  NO   OCC          E(Eh)            E(eV) 
   0   1.0000     -10.177919      -276.9553 
   1   1.0000      -0.641165       -17.4470 
   2   1.0000      -0.415008       -11.2929 
   3   1.0000      -0.399224       -10.8634 
   4   0.0000      -0.077029        -2.0961 
   5   0.0000       0.003192         0.0868 
   6   0.0000       0.035237         0.9589 
   7   0.0000       0.037349         1.0163 
   8   0.0000       0.060683         1.6513 
   9   0.0000       0.082203         2.2369 
  10   0.0000       0.092559         2.5187 
  11   0.0000       0.098409         2.6778 
  12   0.0000       0.220707         6.0057 
  13   0.0000       0.228172         6.2089 
  14   0.0000       0.262522         7.1436 
  15   0.0000       0.297180         8.0867 
  16   0.0000       0.310298         8.4436 
  17   0.0000       0.311416         8.4740 
  18   0.0000       0.349422         9.5082 
  19   0.0000       0.571376        15.5479 
  20   0.0000       0.591032        16.0828 
  21   0.0000       0.739458        20.1217 
  22   0.0000       0.750123        20.4119 
  23   0.0000       0.799394        21.7526 
  24   0.0000       0.812391        22.1063 
  25   0.0000       0.872974        23.7548 
  26   0.0000       0.896406        24.3924 
  27   0.0000       0.956945        26.0398 
  28   0.0000       0.964044        26.2330 
  29   0.0000       1.085306        29.5327 
  30   0.0000       1.123341        30.5677 
  31   0.0000       1.125810        30.6348 
  32   0.0000       1.170325        31.8462 
  33   0.0000       1.174850        31.9693 
  34   0.0000       1.451060        39.4854 
  35   0.0000       1.468768        39.9672 
  36   0.0000       1.494695        40.6727 
  37   0.0000       1.714443        46.6524 
  38   0.0000       1.720088        46.8060 
  39   0.0000       1.747445        47.5504 
  40   0.0000       2.763706        75.2043 
  41   0.0000       2.778003        75.5933 
  42   0.0000       2.891862        78.6916 
  43   0.0000       2.930123        79.7327 
  44   0.0000       2.968155        80.7676 
  45   0.0000       2.983911        81.1964 
  46   0.0000       3.025529        82.3288 
  47   0.0000       3.201138        87.1074 
  48   0.0000       3.222096        87.6777 
  49   0.0000       3.308258        90.0223 
  50   0.0000       3.324506        90.4644 
  51   0.0000       3.638148        98.9991 
  52   0.0000       3.777335       102.7865 
  53   0.0000       3.784546       102.9827 
  54   0.0000       3.907448       106.3271 
  55   0.0000       3.914572       106.5209 
  56   0.0000       4.052246       110.2672 
  57   0.0000       4.087088       111.2153 
  58   0.0000       4.096027       111.4586 
  59   0.0000       4.139136       112.6316 
  60   0.0000       4.557688       124.0210 
  61   0.0000       5.009738       136.3219 
  62   0.0000       5.247343       142.7874 
  63   0.0000       5.390203       146.6749 
  64   0.0000       5.484148       149.2313 
  65   0.0000       6.005781       163.4256 
  66   0.0000       6.107072       166.1819 
  67   0.0000       7.696573       209.4344 
  68   0.0000      29.053841       790.5952 
  69   0.0000      37.034253      1007.7533 
  70   0.0000      37.188257      1011.9439 
  71   0.0000      37.197384      1012.1923 
  72   0.0000     133.483060      3632.2587 

                    ********************************
                    * MULLIKEN POPULATION ANALYSIS *
                    ********************************

--------------------------------------------
MULLIKEN ATOMIC CHARGES AND SPIN POPULATIONS
--------------------------------------------
   0 C :   -0.428295    1.109169
   1 H :    0.138463   -0.035075
   2 H :    0.142907   -0.039816
   3 H :    0.146925   -0.034278
Sum of atomic charges         :    0.0000000
Sum of atomic spin populations:    1.0000000

-----------------------------------------------------
MULLIKEN REDUCED ORBITAL CHARGES AND SPIN POPULATIONS
-----------------------------------------------------
CHARGE
  0 C s       :     3.349297  s :     3.349297
      pz      :     0.970121  p :     3.051796
      px      :     1.045329
      py      :     1.036347
      dz2     :     0.005601  d :     0.024354
      dxz     :     0.000268
      dyz     :     0.000148
      dx2y2   :     0.007558
      dxy     :     0.010780
      f0      :     0.000050  f :     0.002848
      f+1     :     0.000644
      f-1     :     0.000647
      f+2     :     0.000028
      f-2     :     0.000037
      f+3     :     0.001087
      f-3     :     0.000355
  1 H s       :     0.834894  s :     0.834894
      pz      :     0.010367  p :     0.026643
      px      :     0.007727
      py      :     0.008549
  2 H s       :     0.833127  s :     0.833127
      pz      :     0.009376  p :     0.023966
      px      :     0.006226
      py      :     0.008364
  3 H s       :     0.825462  s :     0.825462
      pz      :     0.010855  p :     0.027613
      px      :     0.009601
      py      :     0.007157

SPIN
  0 C s       :     0.068086  s :     0.068086
      pz      :     0.958210  p :     1.045386
      px      :     0.045358
      py      :     0.041817
      dz2     :    -0.004609  d :    -0.002975
      dxz     :    -0.000118
      dyz     :    -0.000003
      dx2y2   :     0.000694
      dxy     :     0.001062
      f0      :    -0.000038  f :    -0.001328
      f+1     :    -0.000595
      f-1     :    -0.000597
      f+2     :    -0.000019
      f-2     :    -0.000016
      f+3     :    -0.000049
      f-3     :    -0.000013
  1 H s       :    -0.044876  s :    -0.044876
      pz      :     0.010272  p :     0.009801
      px      :    -0.000248
      py      :    -0.000224
  2 H s       :    -0.048918  s :    -0.048918
      pz      :     0.009308  p :     0.009102
      px      :    -0.000084
      py      :    -0.000122
  3 H s       :    -0.044795  s :    -0.044795
      pz      :     0.010740  p :     0.010517
      px      :    -0.000022
      py      :    -0.000201


                     *******************************
                     * LOEWDIN POPULATION ANALYSIS *
                     *******************************

-------------------------------------------
LOEWDIN ATOMIC CHARGES AND SPIN POPULATIONS
-------------------------------------------
   0 C :   -0.173580    0.919898
   1 H :    0.045557    0.030916
   2 H :    0.081984    0.018032
   3 H :    0.046039    0.031154

----------------------------------------------------
LOEWDIN REDUCED ORBITAL CHARGES AND SPIN POPULATIONS
----------------------------------------------------
CHARGE
  0 C s       :     2.903782  s :     2.903782
      pz      :     0.883631  p :     3.172460
      px      :     1.150519
      py      :     1.138310
      dz2     :     0.006681  d :     0.090056
      dxz     :     0.000698
      dyz     :     0.000520
      dx2y2   :     0.035468
      dxy     :     0.046690
      f0      :     0.000289  f :     0.007282
      f+1     :     0.001897
      f-1     :     0.001871
      f+2     :     0.000075
      f-2     :     0.000082
      f+3     :     0.002239
      f-3     :     0.000829
  1 H s       :     0.808014  s :     0.808014
      pz      :     0.042705  p :     0.146428
      px      :     0.047679
      py      :     0.056045
  2 H s       :     0.795671  s :     0.795671
      pz      :     0.033841  p :     0.122345
      px      :     0.029961
      py      :     0.058543
  3 H s       :     0.806798  s :     0.806798
      pz      :     0.043138  p :     0.147163
      px      :     0.070556
      py      :     0.033470

SPIN
  0 C s       :     0.020840  s :     0.020840
      pz      :     0.870186  p :     0.908027
      px      :     0.020874
      py      :     0.016967
      dz2     :    -0.003936  d :    -0.007627
      dxz     :    -0.000127
      dyz     :    -0.000026
      dx2y2   :    -0.001469
      dxy     :    -0.002069
      f0      :     0.000116  f :    -0.001342
      f+1     :    -0.000546
      f-1     :    -0.000563
      f+2     :    -0.000018
      f-2     :    -0.000018
      f+3     :    -0.000237
      f-3     :    -0.000076
  1 H s       :    -0.016759  s :    -0.016759
      pz      :     0.042061  p :     0.047675
      px      :     0.002407
      py      :     0.003208
  2 H s       :    -0.021075  s :    -0.021075
      pz      :     0.033552  p :     0.039107
      px      :     0.001526
      py      :     0.004029
  3 H s       :    -0.017225  s :    -0.017225
      pz      :     0.042431  p :     0.048379
      px      :     0.004862
      py      :     0.001086


                      *****************************
                      * MAYER POPULATION ANALYSIS *
                      *****************************

  NA   - Mulliken gross atomic population
  ZA   - Total nuclear charge
  QA   - Mulliken gross atomic charge
  VA   - Mayer's total valence
  BVA  - Mayer's bonded valence
  FA   - Mayer's free valence

  ATOM       NA         ZA         QA         VA         BVA        FA
  0 C      6.4283     6.0000    -0.4283     3.8679     2.9199     0.9480
  1 H      0.8615     1.0000     0.1385     0.9791     0.9771     0.0020
  2 H      0.8571     1.0000     0.1429     0.9834     0.9811     0.0024
  3 H      0.8531     1.0000     0.1469     0.9828     0.9808     0.0020

  Mayer bond orders larger than 0.100000
B(  0-C ,  1-H ) :   0.9746 B(  0-C ,  2-H ) :   0.9719 B(  0-C ,  3-H ) :   0.9734 


-------
TIMINGS
-------

Total SCF time: 0 days 0 hours 0 min 6 sec 

Total time                  ....       6.095 sec
Sum of individual times     ....       5.015 sec  ( 82.3%)

Fock matrix formation       ....       4.038 sec  ( 66.2%)
  Split-RI-J                ....       0.501 sec  ( 12.4% of F)
  Chain of spheres X        ....       0.891 sec  ( 22.1% of F)
  XC integration            ....       1.700 sec  ( 42.1% of F)
    Basis function eval.    ....       0.107 sec  (  6.3% of XC)
    Density eval.           ....       0.124 sec  (  7.3% of XC)
    XC-Functional eval.     ....       0.109 sec  (  6.4% of XC)
    XC-Potential eval.      ....       0.150 sec  (  8.8% of XC)
Diagonalization             ....       0.073 sec  (  1.2%)
Density matrix formation    ....       0.002 sec  (  0.0%)
Population analysis         ....       0.077 sec  (  1.3%)
Initial guess               ....       0.103 sec  (  1.7%)
Orbital Transformation      ....       0.000 sec  (  0.0%)
Orbital Orthonormalization  ....       0.000 sec  (  0.0%)
DIIS solution               ....       0.146 sec  (  2.4%)
Grid generation             ....       0.577 sec  (  9.5%)

Maximum memory used throughout the entire SCF-calculation: 59.0 MB

-------------------------   --------------------
FINAL SINGLE POINT ENERGY       -39.823797036353
-------------------------   --------------------

   --->>> g-tensor requested, so NeedSOC=true

                            ***************************************
                            *     ORCA property calculations      *
                            ***************************************

                                    ---------------------
                                    Active property flags
                                    ---------------------
   (+) Dipole Moment
   (+) g-tensor
   (+) Nuclear properties (Hyperfine,Quadrupole)
   (+) Spin-Orbit Integrals are needed


------------------------------------------------------------------------------
                       ORCA ELECTRIC PROPERTIES CALCULATION
------------------------------------------------------------------------------

Dipole Moment Calculation                       ... on
Quadrupole Moment Calculation                   ... off
Polarizability Calculation                      ... off
GBWName                                         ... /home/rwth0701/scratch/cs681498/orcajob__30556330-ZkD8/9128.gbw
Electron density                                ... /home/rwth0701/scratch/cs681498/orcajob__30556330-ZkD8/9128.scfp
The origin for moment calculation is the CENTER OF MASS  = (-59.538887, -95.443892 -34.965113)

-------------
DIPOLE MOMENT
-------------
                                X             Y             Z
Electronic contribution:      0.07243      -0.00352      -0.00740
Nuclear contribution   :     -0.07827       0.02035       0.01441
                        -----------------------------------------
Total Dipole Moment    :     -0.00584       0.01683       0.00701
                        -----------------------------------------
Magnitude (a.u.)       :      0.01914
Magnitude (Debye)      :      0.04866



--------------------
Rotational spectrum 
--------------------
 
Rotational constants in cm-1:    10.111658     8.202644     4.529434 
Rotational constants in MHz : 303139.886393 245909.085216 135789.012134 

 Dipole components along the rotational axes: 
x,y,z [a.u.] :     0.010017     0.013985     0.008397 
x,y,z [Debye]:     0.025461     0.035548     0.021344 

 


           ************************************************************
           *        Program running with 4 parallel MPI-processes     *
           *              working on a common directory               *
           ************************************************************
------------------------------------------------------------------------------
                         ORCA SPIN-ORBIT COUPLING CALCULATION
------------------------------------------------------------------------------

GBW file                                    ... /home/rwth0701/scratch/cs681498/orcajob__30556330-ZkD8/9128.gbw
Input density                               ... /home/rwth0701/scratch/cs681498/orcajob__30556330-ZkD8/9128.scfp
Output integrals                            ... /home/rwth0701/scratch/cs681498/orcajob__30556330-ZkD8/9128
Operator type                               ... Mean-field/Effective potential
   One-Electron Terms                       ... 1
   Coulomb Contribution                     ... 3
   Exchange Contribution                    ... 3
   Correlation Contribution                 ... 0
   Maximum number of centers                ... 4
SHARK 2-electron RIJ-SOMF                   ... done (  0.1 sec)
SHARK 1-electron  MaxCenter=4               ... done (  0.0 sec)
SHARK 2-electron DoJ,X=0,1 MaxCenter=1      ... done (  0.1 sec)

Maximum memory used throughout the entire SOC-calculation: 11.3 MB
Total time for SOC:  2.953


           ************************************************************
           *        Program running with 4 parallel MPI-processes     *
           *              working on a common directory               *
           ************************************************************
------------------------------------------------------------------------------
                                ORCA EPR/NMR CALCULATION
------------------------------------------------------------------------------

GBWName                      ... /home/rwth0701/scratch/cs681498/orcajob__30556330-ZkD8/9128.gbw
Electron density             ... /home/rwth0701/scratch/cs681498/orcajob__30556330-ZkD8/9128.scfp
Spin density                 ... /home/rwth0701/scratch/cs681498/orcajob__30556330-ZkD8/9128.scfr
Spin-orbit integrals         ... /home/rwth0701/scratch/cs681498/orcajob__30556330-ZkD8/9128
Treatment of gauge           ... GIAO (approximations 1/2el = 0,0)
Details of the CP(SCF) procedure:
       Solver   = POPLE   
       MaxIter  =    64   
       Tolerance=    1.000e-03
       COSX Grid=     1   
       Op-0     =   0-  4 =>   5- 72
       Op-1     =   0-  3 =>   4- 72
Multiplicity                 ... 2
g-tensor                     ... 1
NMR chemical shifts          ... 0
NMR spin-spin couplings      ... 0
NMR spectrum                 ... 0
Number of nuclei for epr/nmr ... 4
   Nucleus:   1H 
       Hyperfine : Isotope=    1 I=   0.500 P= 533.551
       Quadrupole: Isotope=    2 I=   1.000 Q=   0.003
       Spin-Orbit: Zeff=   1.000
       Nuclear Spin-Spin: Gn=   0.000
       EPRNMR Input: 
       rho(0)=N f(grad)=N a(iso)=Y a(dip)=Y a(orb)=Y sigma(nmr)=N spin-spin(nmr)=all-N,DSO-N,PSO-N,FC-N,SD-N
   Nucleus:   2H 
       Hyperfine : Isotope=    1 I=   0.500 P= 533.551
       Quadrupole: Isotope=    2 I=   1.000 Q=   0.003
       Spin-Orbit: Zeff=   1.000
       Nuclear Spin-Spin: Gn=   0.000
       EPRNMR Input: 
       rho(0)=N f(grad)=N a(iso)=Y a(dip)=Y a(orb)=Y sigma(nmr)=N spin-spin(nmr)=all-N,DSO-N,PSO-N,FC-N,SD-N
   Nucleus:   3H 
       Hyperfine : Isotope=    1 I=   0.500 P= 533.551
       Quadrupole: Isotope=    2 I=   1.000 Q=   0.003
       Spin-Orbit: Zeff=   1.000
       Nuclear Spin-Spin: Gn=   0.000
       EPRNMR Input: 
       rho(0)=N f(grad)=N a(iso)=Y a(dip)=Y a(orb)=Y sigma(nmr)=N spin-spin(nmr)=all-N,DSO-N,PSO-N,FC-N,SD-N
   Nucleus:   0C 
       Hyperfine : Isotope=   13 I=   0.500 P= 134.190
       Quadrupole: Isotope=   13 I=   0.500 Q=   0.000
       Spin-Orbit: Zeff=   3.600
       Nuclear Spin-Spin: Gn=   0.000
       EPRNMR Input: 
       rho(0)=N f(grad)=N a(iso)=Y a(dip)=Y a(orb)=Y sigma(nmr)=N spin-spin(nmr)=all-N,DSO-N,PSO-N,FC-N,SD-N
Forming RHS of the CP-SCF equations         ... 
Calculating right hand sides for GIAO treatment        ... 
  Entering RightHandSide GIAO. ScalHFX=    0.2000 NeedHFX=1
     -> 1-electron GIAO integrals will be done analytically
     -> RIJCOSX used in SCF. Same chosen for GIAO calculation.
     Making grid for GIAO integrations   ...

GRID GIAO
---------

General Integration Accuracy     IntAcc      ... 4.388
Radial Grid Type                 RadialGrid  ... OptM3 with GC (2021)
Angular Grid (max. ang.)         AngularGrid ... 4 (Lebedev-302)
Angular grid pruning method      GridPruning ... 4 (adaptive)
Weight generation scheme         WeightScheme... Becke
Basis function cutoff            BFCut       ... 1.0000e-10
Integration weight cutoff        WCut        ... 1.0000e-14
Angular grids for H and He will be reduced by one unit
Partially contracted basis set               ... off
Rotationally invariant grid construction     ... off

Total number of grid points                  ...    17054
Total number of batches                      ...      268
Average number of points per batch           ...       63
Average number of grid points per atom       ...     4264

  One-electron GIAO integrals (SHARK)     ... done
  Calculating G(B)[P]                     ... (RI-J: SHARK-ok) (COSX-ok) (add-J+K:ok) => dG/dB done
  DFT XC-terms                            ... done
  Extracting occupied and virtual blocks  ... 
  Operator  0  NO=   5 NV=  68 
  Operator  1  NO=   4 NV=  69 
  Transforming and RHS contribution       ... done
  Adding eps_i * S(B)_ai terms            ... done
  Projecting overlap derivatives          ... done
  Building G[dS/dB_ij] (COSX)             ... done
  Transforming to MO basis                ... done
  Summing G[dS/dB_ij] into RHS contribs.  ... done

  GIAO profiling information: 
    Total GIAO time               ...       0.9 sec
       GIAO 1-electron integrals  ...       0.0 sec (  0.4%)
       GIAO G(dS/dB) terms        ...       0.1 sec ( 11.9%)
       GIAO RI-J                  ...       0.1 sec ( 11.6%)
       GIAO COSX                  ...       0.1 sec ( 16.3%)
       GIAO XC-terms              ...       0.3 sec ( 33.3%)

  GIAO right hand side done


------------------------------------------------------------------------------
                           ORCA CP-SCF CALCULATION
------------------------------------------------------------------------------

Input orbitals are from        ... /home/rwth0701/scratch/cs681498/orcajob__30556330-ZkD8/9128.gbw
Input Perturbation             ... /home/rwth0701/scratch/cs681498/orcajob__30556330-ZkD8/9128.pin.tmp
Wavefunction output            ... /home/rwth0701/scratch/cs681498/orcajob__30556330-ZkD8/9128.pout.tmp
Perturbation mode              ... Imaginary perturbation
Solver                         ... POPLE
Max. number of iterations      ... 64
Convergence tolerance          ... 1.000e-03
Integral handling              ... Direct
DFT GridXC                     ... 1
COSX GridX                     ... 1
COSX IntAccX                   ... 3.067
COSX Algorithm                 ... Auto
Number of perturbations        ... 3
Number of operators            ... 2
Orbital ranges used for CP-SCF:
 Operator 0:  Orbitals   0...  4  to   5... 72
 Operator 1:  Orbitals   0...  3  to   4... 72
Variables per perturbation     ... 616
DFT calculation                         ... on
XC functional terms                     ... off
Hybrid DFT                              ... on
   Exchange mixing (SCF)                ...  0.200
   Exchange mixing (CP-SCF)             ...  0.200
   GGA exch. scaling(SCF)               ...  0.720
   GGA exch. scaling (CP-SCF)           ...  0.720
   GGA corr. scaling (SCF)              ...  0.810
   GGA corr. scaling (CP-SCF)           ...  0.810

CP-SCF GRID
-----------

General Integration Accuracy     IntAcc      ... 3.467
Radial Grid Type                 RadialGrid  ... OptM3 with GC (2021)
Angular Grid (max. ang.)         AngularGrid ... 1 (Lebedev-50)
Angular grid pruning method      GridPruning ... 4 (adaptive)
Weight generation scheme         WeightScheme... Becke
Basis function cutoff            BFCut       ... 1.0000e-10
Integration weight cutoff        WCut        ... 1.0000e-14
Angular grids for H and He will be reduced by one unit
Partially contracted basis set               ... off
Rotationally invariant grid construction     ... off

Total number of grid points                  ...     2342
Total number of batches                      ...       38
Average number of points per batch           ...       61
Average number of grid points per atom       ...      586

CP-SCF GRIDX
------------

General Integration Accuracy     IntAcc      ... 3.067
Radial Grid Type                 RadialGrid  ... OptM3 with GC (2021)
Angular Grid (max. ang.)         AngularGrid ... 1 (Lebedev-50)
Angular grid pruning method      GridPruning ... 4 (adaptive)
Weight generation scheme         WeightScheme... Becke
Basis function cutoff            BFCut       ... 1.0000e-10
Integration weight cutoff        WCut        ... 1.0000e-14
Angular grids for H and He will be reduced by one unit
Partially contracted basis set               ... on
Rotationally invariant grid construction     ... off

Total number of grid points                  ...     1073
Total number of batches                      ...       20
Average number of points per batch           ...       53
Average number of grid points per atom       ...      268

Memory available               ... 1014.6 MB
Memory needed per perturbation ...   0.4 MB
Perturbations treated per batch... 3
Number of batches              ... 1
     CP-SCF ITERATION   0:   4.8467e+00 (   0.1 sec   0/  3 done)
     CP-SCF ITERATION   1:   3.9611e-02 (   0.1 sec   0/  3 done)
     CP-SCF ITERATION   2:   3.2939e-03 (   0.1 sec   0/  3 done)
     CP-SCF ITERATION   3:   1.3718e-04 (   0.1 sec   3/  3 done)
                    *** THE CP-SCF HAS CONVERGED ***

Forming final perturbed densities           ... done
Transforming perturbed density to AO basis  ... done

Magnetic field perturbation calculated in  1.418 sec
GIAO: Diamagnetic terms      (analytic)     (SHARK) ... done
GIAO: 1el-Paramagnetic terms (analytic)     (SHARK) ... done

-------------------
ELECTRONIC G-MATRIX
-------------------

 The g-matrix: 
              2.0028666    0.0000278    0.0000592
              0.0000240    2.0028941   -0.0000306
              0.0000643   -0.0000258    2.0022353

 gel          2.0023193    2.0023193    2.0023193
 gRMC        -0.0001279   -0.0001279   -0.0001279
 gDSO(tot)    0.0000344    0.0000708    0.0000708
 gPSO(tot)    0.0000020    0.0005961    0.0006476
             ----------   ----------   ----------
 g(tot)       2.0022279    2.0028583    2.0029098 iso=  2.0026653
 Delta-g     -0.0000914    0.0005390    0.0005905 iso=  0.0003461
 Orientation: 
  X          -0.0979604   -0.8438430   -0.5275725
  Y           0.0458543    0.5257320   -0.8494135
  Z           0.9941334   -0.1074004   -0.0128071

Notes:  (1) The g-matrix conforms to the "BgS" spin Hamiltonian convention. 
        (2) The principal values are square roots of the eigenvalues of g*gT.
        (3) Orientations are eigenvectors of g*gT written as column vectors.
        (4) Individual contributions are projections of the full matrices onto the eigenvectors of g*gT.
        (5) Tensor is right-handed.


-----------------------------------------
ELECTRIC AND MAGNETIC HYPERFINE STRUCTURE
-----------------------------------------

 -----------------------------------------------------------
 Nucleus   1H : A:ISTP=    1 I=  0.5 P=533.5514 MHz/au**3
                Q:ISTP=    2 I=  1.0 Q=  0.0029 barn     
 -----------------------------------------------------------
 Solving for nuclear perturbation:
Forming RHS of the CP-SCF equations         ... 
Calc. nucleus orbit integrals (SHARK)       ... done

------------------------------------------------------------------------------
                           ORCA CP-SCF CALCULATION
------------------------------------------------------------------------------

Input orbitals are from        ... /home/rwth0701/scratch/cs681498/orcajob__30556330-ZkD8/9128.gbw
Input Perturbation             ... /home/rwth0701/scratch/cs681498/orcajob__30556330-ZkD8/9128.pin.tmp
Wavefunction output            ... /home/rwth0701/scratch/cs681498/orcajob__30556330-ZkD8/9128.pout.tmp
Perturbation mode              ... Imaginary perturbation
Solver                         ... POPLE
Max. number of iterations      ... 64
Convergence tolerance          ... 1.000e-03
Integral handling              ... Direct
DFT GridXC                     ... 1
COSX GridX                     ... 1
COSX IntAccX                   ... 3.067
COSX Algorithm                 ... Auto
Number of perturbations        ... 3
Number of operators            ... 2
Orbital ranges used for CP-SCF:
 Operator 0:  Orbitals   0...  4  to   5... 72
 Operator 1:  Orbitals   0...  3  to   4... 72
Variables per perturbation     ... 616
DFT calculation                         ... on
XC functional terms                     ... off
Hybrid DFT                              ... on
   Exchange mixing (SCF)                ...  0.200
   Exchange mixing (CP-SCF)             ...  0.200
   GGA exch. scaling(SCF)               ...  0.720
   GGA exch. scaling (CP-SCF)           ...  0.720
   GGA corr. scaling (SCF)              ...  0.810
   GGA corr. scaling (CP-SCF)           ...  0.810

CP-SCF GRID
-----------

General Integration Accuracy     IntAcc      ... 3.467
Radial Grid Type                 RadialGrid  ... OptM3 with GC (2021)
Angular Grid (max. ang.)         AngularGrid ... 1 (Lebedev-50)
Angular grid pruning method      GridPruning ... 4 (adaptive)
Weight generation scheme         WeightScheme... Becke
Basis function cutoff            BFCut       ... 1.0000e-10
Integration weight cutoff        WCut        ... 1.0000e-14
Angular grids for H and He will be reduced by one unit
Partially contracted basis set               ... off
Rotationally invariant grid construction     ... off

Total number of grid points                  ...     2342
Total number of batches                      ...       38
Average number of points per batch           ...       61
Average number of grid points per atom       ...      586

CP-SCF GRIDX
------------

General Integration Accuracy     IntAcc      ... 3.067
Radial Grid Type                 RadialGrid  ... OptM3 with GC (2021)
Angular Grid (max. ang.)         AngularGrid ... 1 (Lebedev-50)
Angular grid pruning method      GridPruning ... 4 (adaptive)
Weight generation scheme         WeightScheme... Becke
Basis function cutoff            BFCut       ... 1.0000e-10
Integration weight cutoff        WCut        ... 1.0000e-14
Angular grids for H and He will be reduced by one unit
Partially contracted basis set               ... on
Rotationally invariant grid construction     ... off

Total number of grid points                  ...     1073
Total number of batches                      ...       20
Average number of points per batch           ...       53
Average number of grid points per atom       ...      268

Memory available               ... 968.0 MB
Memory needed per perturbation ...   0.4 MB
Perturbations treated per batch... 3
Number of batches              ... 1
     CP-SCF ITERATION   0:   6.1640e-02 (   0.1 sec   0/  3 done)
     CP-SCF ITERATION   1:   2.2749e-03 (   0.1 sec   1/  3 done)
     CP-SCF ITERATION   2:   1.9340e-04 (   0.1 sec   3/  3 done)
                    *** THE CP-SCF HAS CONVERGED ***

Forming final perturbed densities           ... done
Transforming perturbed density to AO basis  ... done

 Raw HFC matrix (all values in MHz): 
 -----------------------------------
               -72.0909             -38.2421               0.8103
               -38.2432             -56.4226              -3.6548
                 0.8104              -3.6547             -62.4182

 A(FC)         -63.6577             -63.6577             -63.6577
 A(SD)          38.7257               1.0109             -39.7367
 A(ORB+DIA)      0.0106              -0.0006               0.0314    A(PC) =   0.0138
 A(ORB)          0.0057               0.0006               0.0300    A(PC) =   0.0121
 A(DIA)          0.0049              -0.0011               0.0014    A(PC) =   0.0017
             ----------           ----------           ----------
 A(Tot)        -24.9214             -62.6473            -103.3630    A(iso)=  -63.6439
 Orientation: 
  X          -0.6281985           -0.0881354            0.7730451
  Y           0.7729555            0.0428530            0.6330114
  Z          -0.0889180            0.9951863            0.0412045

Notes:  (1) The A matrix conforms to the "SAI" spin Hamiltonian convention.
        (2) Tensor is right-handed.

 -----------------------------------------------------------
 Nucleus   2H : A:ISTP=    1 I=  0.5 P=533.5514 MHz/au**3
                Q:ISTP=    2 I=  1.0 Q=  0.0029 barn     
 -----------------------------------------------------------
 Solving for nuclear perturbation:
Forming RHS of the CP-SCF equations         ... 
Calc. nucleus orbit integrals (SHARK)       ... done

------------------------------------------------------------------------------
                           ORCA CP-SCF CALCULATION
------------------------------------------------------------------------------

Input orbitals are from        ... /home/rwth0701/scratch/cs681498/orcajob__30556330-ZkD8/9128.gbw
Input Perturbation             ... /home/rwth0701/scratch/cs681498/orcajob__30556330-ZkD8/9128.pin.tmp
Wavefunction output            ... /home/rwth0701/scratch/cs681498/orcajob__30556330-ZkD8/9128.pout.tmp
Perturbation mode              ... Imaginary perturbation
Solver                         ... POPLE
Max. number of iterations      ... 64
Convergence tolerance          ... 1.000e-03
Integral handling              ... Direct
DFT GridXC                     ... 1
COSX GridX                     ... 1
COSX IntAccX                   ... 3.067
COSX Algorithm                 ... Auto
Number of perturbations        ... 3
Number of operators            ... 2
Orbital ranges used for CP-SCF:
 Operator 0:  Orbitals   0...  4  to   5... 72
 Operator 1:  Orbitals   0...  3  to   4... 72
Variables per perturbation     ... 616
DFT calculation                         ... on
XC functional terms                     ... off
Hybrid DFT                              ... on
   Exchange mixing (SCF)                ...  0.200
   Exchange mixing (CP-SCF)             ...  0.200
   GGA exch. scaling(SCF)               ...  0.720
   GGA exch. scaling (CP-SCF)           ...  0.720
   GGA corr. scaling (SCF)              ...  0.810
   GGA corr. scaling (CP-SCF)           ...  0.810

CP-SCF GRID
-----------

General Integration Accuracy     IntAcc      ... 3.467
Radial Grid Type                 RadialGrid  ... OptM3 with GC (2021)
Angular Grid (max. ang.)         AngularGrid ... 1 (Lebedev-50)
Angular grid pruning method      GridPruning ... 4 (adaptive)
Weight generation scheme         WeightScheme... Becke
Basis function cutoff            BFCut       ... 1.0000e-10
Integration weight cutoff        WCut        ... 1.0000e-14
Angular grids for H and He will be reduced by one unit
Partially contracted basis set               ... off
Rotationally invariant grid construction     ... off

Total number of grid points                  ...     2342
Total number of batches                      ...       38
Average number of points per batch           ...       61
Average number of grid points per atom       ...      586

CP-SCF GRIDX
------------

General Integration Accuracy     IntAcc      ... 3.067
Radial Grid Type                 RadialGrid  ... OptM3 with GC (2021)
Angular Grid (max. ang.)         AngularGrid ... 1 (Lebedev-50)
Angular grid pruning method      GridPruning ... 4 (adaptive)
Weight generation scheme         WeightScheme... Becke
Basis function cutoff            BFCut       ... 1.0000e-10
Integration weight cutoff        WCut        ... 1.0000e-14
Angular grids for H and He will be reduced by one unit
Partially contracted basis set               ... on
Rotationally invariant grid construction     ... off

Total number of grid points                  ...     1073
Total number of batches                      ...       20
Average number of points per batch           ...       53
Average number of grid points per atom       ...      268

Memory available               ... 967.8 MB
Memory needed per perturbation ...   0.4 MB
Perturbations treated per batch... 3
Number of batches              ... 1
     CP-SCF ITERATION   0:   5.7305e-02 (   0.1 sec   0/  3 done)
     CP-SCF ITERATION   1:   2.1535e-03 (   0.1 sec   1/  3 done)
     CP-SCF ITERATION   2:   1.6934e-04 (   0.1 sec   3/  3 done)
                    *** THE CP-SCF HAS CONVERGED ***

Forming final perturbed densities           ... done
Transforming perturbed density to AO basis  ... done

 Raw HFC matrix (all values in MHz): 
 -----------------------------------
               -92.8096              26.0249              -3.4525
                26.0254             -45.6616               0.7387
                -3.4525               0.7386             -72.9831

 A(FC)         -70.4977             -70.4977             -70.4977
 A(SD)          36.3782              -2.1220             -34.2562
 A(ORB+DIA)      0.0121              -0.0007               0.0274    A(PC) =   0.0130
 A(ORB)          0.0080               0.0004               0.0263    A(PC) =   0.0116
 A(DIA)          0.0041              -0.0011               0.0011    A(PC) =   0.0014
             ----------           ----------           ----------
 A(Tot)        -34.1074             -72.6204            -104.7265    A(iso)=  -70.4848
 Orientation: 
  X           0.4061425           -0.0913734            0.9092300
  Y           0.9136182            0.0609740           -0.4019750
  Z          -0.0187096            0.9939482            0.1082445

Notes:  (1) The A matrix conforms to the "SAI" spin Hamiltonian convention.
        (2) Tensor is right-handed.

 -----------------------------------------------------------
 Nucleus   3H : A:ISTP=    1 I=  0.5 P=533.5514 MHz/au**3
                Q:ISTP=    2 I=  1.0 Q=  0.0029 barn     
 -----------------------------------------------------------
 Solving for nuclear perturbation:
Forming RHS of the CP-SCF equations         ... 
Calc. nucleus orbit integrals (SHARK)       ... done

------------------------------------------------------------------------------
                           ORCA CP-SCF CALCULATION
------------------------------------------------------------------------------

Input orbitals are from        ... /home/rwth0701/scratch/cs681498/orcajob__30556330-ZkD8/9128.gbw
Input Perturbation             ... /home/rwth0701/scratch/cs681498/orcajob__30556330-ZkD8/9128.pin.tmp
Wavefunction output            ... /home/rwth0701/scratch/cs681498/orcajob__30556330-ZkD8/9128.pout.tmp
Perturbation mode              ... Imaginary perturbation
Solver                         ... POPLE
Max. number of iterations      ... 64
Convergence tolerance          ... 1.000e-03
Integral handling              ... Direct
DFT GridXC                     ... 1
COSX GridX                     ... 1
COSX IntAccX                   ... 3.067
COSX Algorithm                 ... Auto
Number of perturbations        ... 3
Number of operators            ... 2
Orbital ranges used for CP-SCF:
 Operator 0:  Orbitals   0...  4  to   5... 72
 Operator 1:  Orbitals   0...  3  to   4... 72
Variables per perturbation     ... 616
DFT calculation                         ... on
XC functional terms                     ... off
Hybrid DFT                              ... on
   Exchange mixing (SCF)                ...  0.200
   Exchange mixing (CP-SCF)             ...  0.200
   GGA exch. scaling(SCF)               ...  0.720
   GGA exch. scaling (CP-SCF)           ...  0.720
   GGA corr. scaling (SCF)              ...  0.810
   GGA corr. scaling (CP-SCF)           ...  0.810

CP-SCF GRID
-----------

General Integration Accuracy     IntAcc      ... 3.467
Radial Grid Type                 RadialGrid  ... OptM3 with GC (2021)
Angular Grid (max. ang.)         AngularGrid ... 1 (Lebedev-50)
Angular grid pruning method      GridPruning ... 4 (adaptive)
Weight generation scheme         WeightScheme... Becke
Basis function cutoff            BFCut       ... 1.0000e-10
Integration weight cutoff        WCut        ... 1.0000e-14
Angular grids for H and He will be reduced by one unit
Partially contracted basis set               ... off
Rotationally invariant grid construction     ... off

Total number of grid points                  ...     2342
Total number of batches                      ...       38
Average number of points per batch           ...       61
Average number of grid points per atom       ...      586

CP-SCF GRIDX
------------

General Integration Accuracy     IntAcc      ... 3.067
Radial Grid Type                 RadialGrid  ... OptM3 with GC (2021)
Angular Grid (max. ang.)         AngularGrid ... 1 (Lebedev-50)
Angular grid pruning method      GridPruning ... 4 (adaptive)
Weight generation scheme         WeightScheme... Becke
Basis function cutoff            BFCut       ... 1.0000e-10
Integration weight cutoff        WCut        ... 1.0000e-14
Angular grids for H and He will be reduced by one unit
Partially contracted basis set               ... on
Rotationally invariant grid construction     ... off

Total number of grid points                  ...     1073
Total number of batches                      ...       20
Average number of points per batch           ...       53
Average number of grid points per atom       ...      268

Memory available               ... 967.7 MB
Memory needed per perturbation ...   0.4 MB
Perturbations treated per batch... 3
Number of batches              ... 1
     CP-SCF ITERATION   0:   7.0819e-02 (   0.1 sec   0/  3 done)
     CP-SCF ITERATION   1:   2.4918e-03 (   0.1 sec   1/  3 done)
     CP-SCF ITERATION   2:   1.8860e-04 (   0.1 sec   3/  3 done)
                    *** THE CP-SCF HAS CONVERGED ***

Forming final perturbed densities           ... done
Transforming perturbed density to AO basis  ... done

 Raw HFC matrix (all values in MHz): 
 -----------------------------------
               -31.7206              17.5079               2.6656
                17.5092            -101.6162               3.6867
                 2.6657               3.6866             -64.8408

 A(FC)         -66.0728             -66.0728             -66.0728
 A(SD)          38.7985               1.1321             -39.9307
 A(ORB+DIA)      0.0105              -0.0006               0.0308    A(PC) =   0.0136
 A(ORB)          0.0056               0.0006               0.0294    A(PC) =   0.0119
 A(DIA)          0.0050              -0.0012               0.0014    A(PC) =   0.0017
             ----------           ----------           ----------
 A(Tot)        -27.2637             -64.9412            -105.9726    A(iso)=  -66.0592
 Orientation: 
  X           0.9682732           -0.1057127            0.2264328
  Y           0.2325385            0.0493708           -0.9713333
  Z           0.0915030            0.9931704            0.0723867

Notes:  (1) The A matrix conforms to the "SAI" spin Hamiltonian convention.
        (2) Tensor is right-handed.

 -----------------------------------------------------------
 Nucleus   0C : A:ISTP=   13 I=  0.5 P=134.1903 MHz/au**3
                Q:ISTP=   13 I=  0.5 Q=  0.0000 barn     
 -----------------------------------------------------------
 Solving for nuclear perturbation:
Forming RHS of the CP-SCF equations         ... 
Calc. nucleus orbit integrals (SHARK)       ... done

------------------------------------------------------------------------------
                           ORCA CP-SCF CALCULATION
------------------------------------------------------------------------------

Input orbitals are from        ... /home/rwth0701/scratch/cs681498/orcajob__30556330-ZkD8/9128.gbw
Input Perturbation             ... /home/rwth0701/scratch/cs681498/orcajob__30556330-ZkD8/9128.pin.tmp
Wavefunction output            ... /home/rwth0701/scratch/cs681498/orcajob__30556330-ZkD8/9128.pout.tmp
Perturbation mode              ... Imaginary perturbation
Solver                         ... POPLE
Max. number of iterations      ... 64
Convergence tolerance          ... 1.000e-03
Integral handling              ... Direct
DFT GridXC                     ... 1
COSX GridX                     ... 1
COSX IntAccX                   ... 3.067
COSX Algorithm                 ... Auto
Number of perturbations        ... 3
Number of operators            ... 2
Orbital ranges used for CP-SCF:
 Operator 0:  Orbitals   0...  4  to   5... 72
 Operator 1:  Orbitals   0...  3  to   4... 72
Variables per perturbation     ... 616
DFT calculation                         ... on
XC functional terms                     ... off
Hybrid DFT                              ... on
   Exchange mixing (SCF)                ...  0.200
   Exchange mixing (CP-SCF)             ...  0.200
   GGA exch. scaling(SCF)               ...  0.720
   GGA exch. scaling (CP-SCF)           ...  0.720
   GGA corr. scaling (SCF)              ...  0.810
   GGA corr. scaling (CP-SCF)           ...  0.810

CP-SCF GRID
-----------

General Integration Accuracy     IntAcc      ... 3.467
Radial Grid Type                 RadialGrid  ... OptM3 with GC (2021)
Angular Grid (max. ang.)         AngularGrid ... 1 (Lebedev-50)
Angular grid pruning method      GridPruning ... 4 (adaptive)
Weight generation scheme         WeightScheme... Becke
Basis function cutoff            BFCut       ... 1.0000e-10
Integration weight cutoff        WCut        ... 1.0000e-14
Angular grids for H and He will be reduced by one unit
Partially contracted basis set               ... off
Rotationally invariant grid construction     ... off

Total number of grid points                  ...     2342
Total number of batches                      ...       38
Average number of points per batch           ...       61
Average number of grid points per atom       ...      586

CP-SCF GRIDX
------------

General Integration Accuracy     IntAcc      ... 3.067
Radial Grid Type                 RadialGrid  ... OptM3 with GC (2021)
Angular Grid (max. ang.)         AngularGrid ... 1 (Lebedev-50)
Angular grid pruning method      GridPruning ... 4 (adaptive)
Weight generation scheme         WeightScheme... Becke
Basis function cutoff            BFCut       ... 1.0000e-10
Integration weight cutoff        WCut        ... 1.0000e-14
Angular grids for H and He will be reduced by one unit
Partially contracted basis set               ... on
Rotationally invariant grid construction     ... off

Total number of grid points                  ...     1073
Total number of batches                      ...       20
Average number of points per batch           ...       53
Average number of grid points per atom       ...      268

Memory available               ... 967.6 MB
Memory needed per perturbation ...   0.4 MB
Perturbations treated per batch... 3
Number of batches              ... 1
     CP-SCF ITERATION   0:   1.1418e+00 (   0.1 sec   0/  3 done)
     CP-SCF ITERATION   1:   3.9687e-02 (   0.1 sec   0/  3 done)
     CP-SCF ITERATION   2:   3.0925e-03 (   0.1 sec   0/  3 done)
     CP-SCF ITERATION   3:   1.5242e-04 (   0.1 sec   3/  3 done)
                    *** THE CP-SCF HAS CONVERGED ***

Forming final perturbed densities           ... done
Transforming perturbed density to AO basis  ... done

 Raw HFC matrix (all values in MHz): 
 -----------------------------------
                11.2010              -1.2210             -22.9564
                -1.2209              10.3034              12.4355
               -22.9564              12.4355             248.6431

 A(FC)          90.1706              90.1706              90.1706
 A(SD)         -80.9897             -80.3426             161.3323
 A(ORB+DIA)     -0.1803              -0.1707              -0.0133    A(PC) =  -0.1215
 A(ORB)         -0.1807              -0.1711              -0.0132    A(PC) =  -0.1217
 A(DIA)          0.0004               0.0004              -0.0001    A(PC) =   0.0002
             ----------           ----------           ----------
 A(Tot)          9.0006               9.6573             251.4896    A(iso)=   90.0492
 Orientation: 
  X          -0.9946551           -0.0398888            0.0952368
  Y          -0.0449626            0.9976480           -0.0517380
  Z          -0.0929490           -0.0557436           -0.9941092

Notes:  (1) The A matrix conforms to the "SAI" spin Hamiltonian convention.
        (2) Tensor is right-handed.


--------------------------------------------------------------------------------
----------------------------------------------------------------------------
                           ORCA EULER ANGLE PROGRAM
----------------------------------------------------------------------------

Only g-tensor available        -->  using g-tensor as reference tensor

Reference tensor               ...  g

g-tensor ordering              ...  |g_min> --> |gx>
                                    |g_mid> --> |gy>
                                    |g_max> --> |gz>

A- and EFG-tensor ordering     ...  the axes |Ax>, |Qx>, |Ay>, etc. are assigned
                                    such that the Euler rotation is minimal. You
                                    can find the respective eigenvalues as Ax,
                                    EFGx, Ay, etc. in the tables below.
                                    The relation of |Ax>, |Ay>,  etc. to Amin, Amid, etc.
                                    (as printed in the ORCA EPR/NMR CALCULATION Output)
                                    is obtained in the detailed printout.

Euler rotation around          ...  z - y - z
   First rotation              -->  by alpha around z
   Second rotation             -->  by beta around y'
   Third rotation              -->  by gamma around z''
   Positive / Negative angle   -->  clockwise / counterclockwise rotation

Plot EFG-tensors                    (-)
Plot HFC-tensors                    (-)
Detailed Printout                   (-)

-------------------------------------------------------------------------
          Euler rotation of hyperfine tensor to g-tensor
-------------------------------------------------------------------------

-------------------------------------------------------------------
 Atom  |   Alpha    Beta    Gamma   |   Ax       Ay       Az 
       |          [degrees]         |           [MHz]         
-------------------------------------------------------------------
  1H      -90.5     18.9     91.0     -62.65   -24.92  -103.36
  2H       96.7      8.1    -96.7     -72.62  -104.73   -34.11
  3H      -89.9     44.8     89.4     -64.94  -105.97   -27.26
  0C       90.7     34.3    -90.6     251.49     9.00     9.66
-------------------------------------------------------------------


Maximum memory used throughout the entire EPRNMR-calculation: 67.6 MB

Timings for individual modules:

Sum of individual times         ...       22.565 sec (=   0.376 min)
GTO integral calculation        ...        4.071 sec (=   0.068 min)  18.0 %
Spin-Orbit-Coupling Matrices    ...        2.943 sec (=   0.049 min)  13.0 %
SCF iterations                  ...        8.559 sec (=   0.143 min)  37.9 %
EPR/NMR calculation             ...        6.992 sec (=   0.117 min)  31.0 %
                             ****ORCA TERMINATED NORMALLY****
TOTAL RUN TIME: 0 days 0 hours 0 minutes 25 seconds 750 msec
