4
# ORCA AIMD Position Step 0, t=0.00 fs, E_Pot=-39.82314971 Hartree, Unit is Angstrom
 C     12.6022894301     -0.6266926546     -7.1846322451
 H     12.3092559322     -1.4837953326     -6.4853588307
 H     13.1769622509      0.2068786471     -6.7587485437
 H     12.0584043831     -0.4595369654     -8.0963961825
4
# ORCA AIMD Position Step 1, t=0.50 fs, E_Pot=-39.82322445 Hartree, Unit is Angstrom
 C     12.6004100516     -0.6269138507     -7.1815523924
 H     12.3035477388     -1.4884580905     -6.4939488284
 H     13.1775018275      0.2114132234     -6.7552571333
 H     12.0654523786     -0.4591875877     -8.0943774479
4
# ORCA AIMD Position Step 2, t=1.00 fs, E_Pot=-39.82359390 Hartree, Unit is Angstrom
 C     12.5985178079     -0.6272541022     -7.1781233738
 H     12.2990813783     -1.4899319125     -6.5053256194
 H     13.1773355780      0.2144005681     -6.7524235271
 H     12.0721490137     -0.4590637226     -8.0931147233
4
# ORCA AIMD Position Step 3, t=1.50 fs, E_Pot=-39.82418446 Hartree, Unit is Angstrom
 C     12.5966350655     -0.6276761575     -7.1743586983
 H     12.2958173269     -1.4884782506     -6.5191128493
 H     13.1763313381      0.2156077895     -6.7502583554
 H     12.0783995476     -0.4591146296     -8.0928121807
4
# ORCA AIMD Position Step 4, t=2.00 fs, E_Pot=-39.82484271 Hartree, Unit is Angstrom
 C     12.5947780616     -0.6281332374     -7.1702992641
 H     12.2936382422     -1.4845838087     -6.5347712358
 H     13.1744406852      0.2149257244     -6.7487174925
 H     12.0841768160     -0.4593014886     -8.0935659759
4
# ORCA AIMD Position Step 5, t=2.50 fs, E_Pot=-39.82536699 Hartree, Unit is Angstrom
 C     12.5929572107     -0.6285683789     -7.1660130828
 H     12.2923452361     -1.4789674195     -6.5516071534
 H     13.1716990048      0.2123708205     -6.7477013300
 H     12.0895213992     -0.4596001710     -8.0953599142
4
# ORCA AIMD Position Step 6, t=3.00 fs, E_Pot=-39.82556859 Hartree, Unit is Angstrom
 C     12.5911777095     -0.6289155352     -7.1615928533
 H     12.2916598614     -1.4725675717     -6.5687953883
 H     13.1682252711      0.2080850754     -6.7470554603
 H     12.0945326371     -0.4600005153     -8.0980709535
4
# ORCA AIMD Position Step 7, t=3.50 fs, E_Pot=-39.82535107 Hartree, Unit is Angstrom
 C     12.5894400128     -0.6291031610     -7.1571501867
 H     12.2912377907     -1.4664975249     -6.5854251282
 H     13.1642183314      0.2023308815     -6.7465738628
 H     12.0993528198     -0.4605033563     -8.1014886157
4
# ORCA AIMD Position Step 8, t=4.00 fs, E_Pot=-39.82477453 Hartree, Unit is Angstrom
 C     12.5877395135     -0.6290614178     -7.1528062172
 H     12.2907000329     -1.4619525035     -6.6005759301
 H     13.1599489235      0.1954793373     -6.7460051256
 H     12.1041474151     -0.4611158926     -8.1053442058
4
# ORCA AIMD Position Step 9, t=4.50 fs, E_Pot=-39.82405864 Hartree, Unit is Angstrom
 C     12.5860650833     -0.6287331652     -7.1486791444
 H     12.2896840251     -1.4600635192     -6.6134217443
 H     13.1557458469      0.1879896147     -6.7450626442
 H     12.1090848044     -0.4618463963     -8.1093444478
4
# ORCA AIMD Position Step 10, t=5.00 fs, E_Pot=-39.82349674 Hartree, Unit is Angstrom
 C     12.5843969107     -0.6280869858     -7.1448704938
 H     12.2879083930     -1.4617150798     -6.6233460680
 H     13.1519744840      0.1803768323     -6.7434399247
 H     12.1143184560     -0.4626992625     -8.1132042914
4
# ORCA AIMD Position Step 11, t=5.50 fs, E_Pot=-39.82331318 Hartree, Unit is Angstrom
 C     12.5827049549     -0.6271281963     -7.1414530127
 H     12.2852346052     -1.4673724850     -6.6300368191
 H     13.1490063502      0.1731670990     -6.7408317062
 H     12.1199740822     -0.4636715419     -8.1166750862
4
# ORCA AIMD Position Step 12, t=6.00 fs, E_Pot=-39.82355256 Hartree, Unit is Angstrom
 C     12.5809506581     -0.6259028585     -7.1384630791
 H     12.2817014484     -1.4769764537     -6.6335268963
 H     13.1471773165      0.1668360986     -6.7369636206
 H     12.1261367272     -0.4647490231     -8.1195651995
4
# ORCA AIMD Position Step 13, t=6.50 fs, E_Pot=-39.82407688 Hartree, Unit is Angstrom
 C     12.5790905668     -0.6244920653     -7.1358999399
 H     12.2775195813     -1.4899570848     -6.6341626437
 H     13.1467498383      0.1617563060     -6.7316183315
 H     12.1328511887     -0.4659075107     -8.1217550839
4
# ORCA AIMD Position Step 14, t=7.00 fs, E_Pot=-39.82465762 Hartree, Unit is Angstrom
 C     12.5770833692     -0.6229982763     -7.1337293668
 H     12.2730319083     -1.5053364828     -6.6325229972
 H     13.1478687197      0.1581369289     -6.7246678012
 H     12.1401223763     -0.4671129174     -8.1232028431
4
# ORCA AIMD Position Step 15, t=7.50 fs, E_Pot=-39.82508896 Hartree, Unit is Angstrom
 C     12.5748986846     -0.6215263024     -7.1318913244
 H     12.2686420976     -1.5219165265     -6.6293013176
 H     13.1505304377      0.1559856358     -6.7160971769
 H     12.1479129289     -0.4683218075     -8.1239474027
4
# ORCA AIMD Position Step 16, t=8.00 fs, E_Pot=-39.82525460 Hartree, Unit is Angstrom
 C     12.5725221143     -0.6201683455     -7.1303080053
 H     12.2647538724     -1.5384515369     -6.6252066570
 H     13.1545756544      0.1551052108     -6.7060133700
 H     12.1561512203     -0.4694836465     -8.1241028202
4
# ORCA AIMD Position Step 17, t=8.50 fs, E_Pot=-39.82514049 Hartree, Unit is Angstrom
 C     12.5699572318     -0.6189945321     -7.1288914336
 H     12.2617235320     -1.5537873245     -6.6208906204
 H     13.1597045585      0.1551219969     -6.6946377825
 H     12.1647395824     -0.4705429778     -8.1238477409
4
# ORCA AIMD Position Step 18, t=9.00 fs, E_Pot=-39.82481585 Hartree, Unit is Angstrom
 C     12.5672240401     -0.6180498599     -7.1275503028
 H     12.2598321178     -1.5669494198     -6.6169049626
 H     13.1655124534      0.1555402763     -6.6822837745
 H     12.1735646587     -0.4714419337     -8.1234083941
4
# ORCA AIMD Position Step 19, t=9.50 fs, E_Pot=-39.82440294 Hartree, Unit is Angstrom
 C     12.5643549619     -0.6173558249     -7.1261961639
 H     12.2592739539     -1.5771873339     -6.6136831018
 H     13.1715368328      0.1558088924     -6.6693241522
 H     12.1825093228     -0.4721232096     -8.1230354530
4
# ORCA AIMD Position Step 20, t=10.00 fs, E_Pot=-39.82404368 Hartree, Unit is Angstrom
 C     12.5613897402     -0.6169142479     -7.1247490256
 H     12.2601558118     -1.5839898309     -6.6115362327
 H     13.1773058348      0.1553858769     -6.6561555223
 H     12.1914657115     -0.4725338567     -8.1229766050
4
# ORCA AIMD Position Step 21, t=10.50 fs, E_Pot=-39.82386503 Hartree, Unit is Angstrom
 C     12.5583707238     -0.6167114053     -7.1231426253
 H     12.2625002861     -1.5870857943     -6.6106552025
 H     13.1823807811      0.1537917439     -6.6431651231
 H     12.2003455311     -0.4726285141     -8.1234450237
4
# ORCA AIMD Position Step 22, t=11.00 fs, E_Pot=-39.82394600 Hartree, Unit is Angstrom
 C     12.5553389307     -0.6167210936     -7.1213287839
 H     12.2662510070     -1.5864412511     -6.6111140879
 H     13.1863885572      0.1506471576     -6.6307036356
 H     12.2090895428     -0.4723735429     -8.1245912836
4
# ORCA AIMD Position Step 23, t=11.50 fs, E_Pot=-39.82429245 Hartree, Unit is Angstrom
 C     12.5523314244     -0.6169072597     -7.1192811746
 H     12.2712768047     -1.5822548484     -6.6128724640
 H     13.1890470909      0.1457009291     -6.6190623034
 H     12.2176694370     -0.4717482023     -8.1264794035
4
# ORCA AIMD Position Step 24, t=12.00 fs, E_Pot=-39.82482719 Hartree, Unit is Angstrom
 C     12.5493799232     -0.6172234298     -7.1169967977
 H     12.2773767030     -1.5749605816     -6.6157774171
 H     13.1901720162      0.1388316332     -6.6084640736
 H     12.2260929992     -0.4707503280     -8.1290765311
4
# ORCA AIMD Position Step 25, t=12.50 fs, E_Pot=-39.82540100 Hartree, Unit is Angstrom
 C     12.5465099395     -0.6176124202     -7.1144973257
 H     12.2842821325     -1.5652369067     -6.6195605090
 H     13.1896878260      0.1300553973     -6.5990510301
 H     12.2344012071     -0.4693984517     -8.1322528694
4
# ORCA AIMD Position Step 26, t=13.00 fs, E_Pot=-39.82583127 Hartree, Unit is Angstrom
 C     12.5437413533     -0.6180093914     -7.1118278550
 H     12.2916635158     -1.5539841740     -6.6238470335
 H     13.1876348873      0.1195316279     -6.5908754261
 H     12.2426478752     -0.4677236939     -8.1357964406
4
# ORCA AIMD Position Step 27, t=13.50 fs, E_Pot=-39.82596120 Hartree, Unit is Angstrom
 C     12.5410872459     -0.6183424774     -7.1090538757
 H     12.2991464457     -1.5422987740     -6.6281732562
 H     13.1841644960      0.1075491143     -6.5838997319
 H     12.2509022770     -0.4657742563     -8.1394318583
4
# ORCA AIMD Position Step 28, t=14.00 fs, E_Pot=-39.82572621 Hartree, Unit is Angstrom
 C     12.5385542193     -0.6185388334     -7.1062555365
 H     12.3063297461     -1.5314080616     -6.6320182556
 H     13.1795399763      0.0945231088     -6.5779923204
 H     12.2592259579     -0.4636055643     -8.1428608246
4
# ORCA AIMD Position Step 29, t=14.50 fs, E_Pot=-39.82519649 Hartree, Unit is Angstrom
 C     12.5361405219     -0.6185321592     -7.1035200624
 H     12.3128209815     -1.5225591478     -6.6348616953
 H     13.1741236674      0.0809731501     -6.5729337373
 H     12.2676722646     -0.4612797381     -8.1457879503
4
# ORCA AIMD Position Step 30, t=15.00 fs, E_Pot=-39.82456322 Hartree, Unit is Angstrom
 C     12.5338349867     -0.6182740689     -7.1009315194
 H     12.3182763923     -1.5168646202     -6.6362601910
 H     13.1683593952      0.0674974848     -6.5684271746
 H     12.2762762317     -0.4588588433     -8.1479553543
4
# ORCA AIMD Position Step 31, t=15.50 fs, E_Pot=-39.82405843 Hartree, Unit is Angstrom
 C     12.5316163984     -0.6177454898     -7.0985598043
 H     12.3224421340     -1.5151320691     -6.6359303515
 H     13.1627422530      0.0547336581     -6.5641193414
 H     12.2850508925     -0.4564001163     -8.1491695949
4
# ORCA AIMD Position Step 32, t=16.00 fs, E_Pot=-39.82384579 Hartree, Unit is Angstrom
 C     12.5294549303     -0.6169645636     -7.0964505696
 H     12.3251839294     -1.5177217634     -6.6338147648
 H     13.1577747142      0.0433055117     -6.5596339995
 H     12.2939843596     -0.4539510470     -8.1493221622
4
# ORCA AIMD Position Step 33, t=16.50 fs, E_Pot=-39.82394896 Hartree, Unit is Angstrom
 C     12.5273159100     -0.6159869711     -7.0946184371
 H     12.3264963375     -1.5244827735     -6.6301067487
 H     13.1539110407      0.0337606422     -6.5546165515
 H     12.3030414720     -0.4515467619     -8.1484012819
4
# ORCA AIMD Position Step 34, t=17.00 fs, E_Pot=-39.82425964 Hartree, Unit is Angstrom
 C     12.5251666017     -0.6148968885     -7.0930448263
 H     12.3264859144     -1.5347952663     -6.6252199461
 H     13.1514935474      0.0265029513     -6.5487882287
 H     12.3121638190     -0.4492079948     -8.1464944287
4
# ORCA AIMD Position Step 35, t=17.50 fs, E_Pot=-39.82460554 Hartree, Unit is Angstrom
 C     12.5229813280     -0.6137937926     -7.0916802218
 H     12.3253441500     -1.5476832541     -6.6197258073
 H     13.1507076847      0.0217495231     -6.5419865843
 H     12.3212809436     -0.4469424583     -8.1437837183
4
# ORCA AIMD Position Step 36, t=18.00 fs, E_Pot=-39.82482859 Hartree, Unit is Angstrom
 C     12.5207482684     -0.6127746729     -7.0904504876
 H     12.3233043372     -1.5619926366     -6.6142575042
 H     13.1515440525      0.0194971477     -6.5342022958
 H     12.3303105671     -0.4447453126     -8.1405301643
4
# ORCA AIMD Position Step 37, t=18.50 fs, E_Pot=-39.82483463 Hartree, Unit is Angstrom
 C     12.5184712944     -0.6119218159     -7.0892650721
 H     12.3206091376     -1.5765433060     -6.6094325998
 H     13.1537999275      0.0195316887     -6.5255835082
 H     12.3391675768     -0.4426020132     -8.1370488499
4
# ORCA AIMD Position Step 38, t=19.00 fs, E_Pot=-39.82461159 Hartree, Unit is Angstrom
 C     12.5161688253     -0.6112956120     -7.0880264876
 H     12.3174858151     -1.5902492186     -6.6057941440
 H     13.1571099147      0.0214661545     -6.5164143672
 H     12.3477716243     -0.4404920228     -8.1336761043
4
# ORCA AIMD Position Step 39, t=19.50 fs, E_Pot=-39.82422344 Hartree, Unit is Angstrom
 C     12.5138700392     -0.6109327000     -7.0866400265
 H     12.3141311483     -1.6021942906     -6.6037758036
 H     13.1609989535      0.0247990382     -6.5070724634
 H     12.3560541366     -0.4383933804     -8.1307308072
4
# ORCA AIMD Position Step 40, t=20.00 fs, E_Pot=-39.82378658 Hartree, Unit is Angstrom
 C     12.5116098825     -0.6108476451     -7.0850227478
 H     12.3107038424     -1.6116714323     -6.6036864063
 H     13.1649437343      0.0289784065     -6.4979768402
 H     12.3639637848     -0.4362877541     -8.1284744545
4
# ORCA AIMD Position Step 41, t=20.50 fs, E_Pot=-39.82343405 Hartree, Unit is Angstrom
 C     12.5094242436     -0.6110360833     -7.0831108163
 H     12.3073216312     -1.6181974764     -6.6057070105
 H     13.1684294114      0.0334594224     -6.4895380992
 H     12.3714701049     -0.4341655656     -8.1270763625
4
# ORCA AIMD Position Step 42, t=21.00 fs, E_Pot=-39.82327637 Hartree, Unit is Angstrom
 C     12.5073463577     -0.6114778998     -7.0808647965
 H     12.3040600390     -1.6215161341     -6.6098936058
 H     13.1709949094      0.0377485015     -6.4821179574
 H     12.3785623201     -0.4320293099     -8.1265883603
4
# ORCA AIMD Position Step 43, t=21.50 fs, E_Pot=-39.82336900 Hartree, Unit is Angstrom
 C     12.5054045062     -0.6121396184     -7.0782722778
 H     12.3009519303     -1.6215969602     -6.6161825070
 H     13.1722631298      0.0414328881     -6.4760010480
 H     12.3852471389     -0.4298956849     -8.1269365501
4
# ORCA AIMD Position Step 44, t=22.00 fs, E_Pot=-39.82369504 Hartree, Unit is Angstrom
 C     12.5036208641     -0.6129764271     -7.0753482359
 H     12.2979865286     -1.6186338401     -6.6243956381
 H     13.1719627912      0.0442009679     -6.4713751038
 H     12.3915418428     -0.4277932788     -8.1279318674
4
# ORCA AIMD Position Step 45, t=22.50 fs, E_Pot=-39.82416759 Hartree, Unit is Angstrom
 C     12.5020116991     -0.6139325263     -7.0721329089
 H     12.2951083545     -1.6130435316     -6.6342485880
 H     13.1699296282      0.0458450793     -6.4683277118
 H     12.3974720016     -0.4257626846     -8.1292909351
4
# ORCA AIMD Position Step 46, t=23.00 fs, E_Pot=-39.82465115 Hartree, Unit is Angstrom
 C     12.5005876037     -0.6149417709     -7.0686891132
 H     12.2922144240     -1.6054696615     -6.6453546984
 H     13.1661128087      0.0462681030     -6.4668389262
 H     12.4030652505     -0.4238514388     -8.1306716302
4
# ORCA AIMD Position Step 47, t=23.50 fs, E_Pot=-39.82500135 Hartree, Unit is Angstrom
 C     12.4993535815     -0.6159311892     -7.0650968674
 H     12.2891577734     -1.5967523310     -6.6572462142
 H     13.1605776970      0.0454861687     -6.4667810190
 H     12.4083440572     -0.4221051939     -8.1317163605
4
# ORCA AIMD Position Step 48, t=24.00 fs, E_Pot=-39.82511314 Hartree, Unit is Angstrom
 C     12.4983091824     -0.6168241179     -7.0614480179
 H     12.2857524117     -1.5878923848     -6.6693973633
 H     13.1535008541      0.0436256054     -6.4679216507
 H     12.4133241068     -0.4205630499     -8.1320898137
4
# ORCA AIMD Position Step 49, t=24.50 fs, E_Pot=-39.82496395 Hartree, Unit is Angstrom
 C     12.4974479640     -0.6175466422     -7.0578396609
 H     12.2817869566     -1.5799759547     -6.6812625455
 H     13.1451639326      0.0409186177     -6.4699293110
 H     12.4180130292     -0.4192519808     -8.1315135030
4
# ORCA AIMD Position Step 50, t=25.00 fs, E_Pot=-39.82462989 Hartree, Unit is Angstrom
 C     12.4967564552     -0.6180367716     -7.0543667590
 H     12.2770481122     -1.5740600545     -6.6923266191
 H     13.1359421975      0.0376936954     -6.4723836607
 H     12.4224105066     -0.4181823520     -8.1297927953
4
# ORCA AIMD Position Step 51, t=25.50 fs, E_Pot=-39.82425773 Hartree, Unit is Angstrom
 C     12.4962129620     -0.6182552422     -7.0511143834
 H     12.2713532637     -1.5710288843     -6.7021607293
 H     13.1262847813      0.0343575918     -6.4747933035
 H     12.4265094255     -0.4173448948     -8.1268354227
4
# ORCA AIMD Position Step 52, t=26.00 fs, E_Pot=-39.82399853 Hartree, Unit is Angstrom
 C     12.4957869469     -0.6181952697     -7.0481504083
 H     12.2645868858     -1.5714491470     -6.7104712750
 H     13.1166837515      0.0313654683     -6.4766237672
 H     12.4302976498     -0.4167092979     -8.1226614109
4
# ORCA AIMD Position Step 53, t=26.50 fs, E_Pot=-39.82393833 Hartree, Unit is Angstrom
 C     12.4954399392     -0.6178876282     -7.0455196856
 H     12.2567312005     -1.5754655049     -6.7171278024
 H     13.1076305419      0.0291771885     -6.4773374486
 H     12.4337600872     -0.4162244816     -8.1174046812
4
# ORCA AIMD Position Step 54, t=27.00 fs, E_Pot=-39.82406764 Hartree, Unit is Angstrom
 C     12.4951286919     -0.6173982298     -7.0432405186
 H     12.2478807449     -1.5827713824     -6.7221610857
 H     13.0995612376      0.0282014439     -6.4764444469
 H     12.4368813303     -0.4158207286     -8.1113063672
4
# ORCA AIMD Position Step 55, t=27.50 fs, E_Pot=-39.82430299 Hartree, Unit is Angstrom
 C     12.4948106872     -0.6168169254     -7.0413039680
 H     12.2382360838     -1.5926719568     -6.7257315900
 H     13.0927980103      0.0287289637     -6.4735623761
 H     12.4396450765     -0.4154133385     -8.1046950624
4
# ORCA AIMD Position Step 56, t=28.00 fs, E_Pot=-39.82453562 Hartree, Unit is Angstrom
 C     12.4944497175     -0.6162434002     -7.0396753734
 H     12.2280773541     -1.6042035005     -6.7280836956
 H     13.0875048101      0.0308874686     -6.4684614060
 H     12.4420385445     -0.4149063193     -8.0979696313
4
# ORCA AIMD Position Step 57, t=28.50 fs, E_Pot=-39.82467451 Hartree, Unit is Angstrom
 C     12.4940211505     -0.6157723298     -7.0382978854
 H     12.2177298793     -1.6162690524     -6.7295003433
 H     13.0836549556      0.0346071722     -6.4611009125
 H     12.4440566044     -0.4141990875     -8.0915658786
4
# ORCA AIMD Position Step 58, t=29.00 fs, E_Pot=-39.82467162 Hartree, Unit is Angstrom
 C     12.4935148070     -0.6154793523     -7.0370997520
 H     12.2075240994     -1.6277961363     -6.7302570469
 H     13.0810391725      0.0396188322     -6.4516361869
 H     12.4456995122     -0.4131939523     -8.0859089229
4
# ORCA AIMD Position Step 59, t=29.50 fs, E_Pot=-39.82452914 Hartree, Unit is Angstrom
 C     12.4929343425     -0.6154157879     -7.0360019368
 H     12.1977664204     -1.6378283673     -6.7305978153
 H     13.0792988849      0.0454896512     -6.4403947223
 H     12.4469760630     -0.4118033160     -8.0813700320
4
# ORCA AIMD Position Step 60, t=30.00 fs, E_Pot=-39.82429554 Hartree, Unit is Angstrom
 C     12.4922944118     -0.6156076003     -7.0349269355
 H     12.1887177277     -1.6455877208     -6.7307205737
 H     13.0779802924      0.0516809135     -6.4278304732
 H     12.4479046892     -0.4099574127     -8.0782216796
4
# ORCA AIMD Position Step 61, t=30.50 fs, E_Pot=-39.82405023 Hartree, Unit is Angstrom
 C     12.4916167599     -0.6160577319     -7.0338071051
 H     12.1805798659     -1.6505058533     -6.7307710344
 H     13.0765939327      0.0576141697     -6.4144673551
 H     12.4485139312     -0.4076113491     -8.0766007410
4
# ORCA AIMD Position Step 62, t=31.00 fs, E_Pot=-39.82387912 Hartree, Unit is Angstrom
 C     12.4909262690     -0.6167497895     -7.0325912622
 H     12.1734890744     -1.6522362668     -6.7308414289
 H     13.0746703918      0.0627317985     -6.4008440078
 H     12.4488403710     -0.4047496054     -8.0764862919
4
# ORCA AIMD Position Step 63, t=31.50 fs, E_Pot=-39.82384816 Hartree, Unit is Angstrom
 C     12.4902482123     -0.6176518707     -7.0312485651
 H     12.1675108298     -1.6506544006     -6.7309714492
 H     13.0717987138      0.0665451754     -6.3874672954
 H     12.4489281392     -0.4013885376     -8.0776989462
4
# ORCA AIMD Position Step 64, t=32.00 fs, E_Pot=-39.82398385 Hartree, Unit is Angstrom
 C     12.4896063265     -0.6187196681     -7.0297696670
 H     12.1626382053     -1.6458547419     -6.7311499160
 H     13.0676545987      0.0686668876     -6.3747779516
 H     12.4488254142     -0.3975745025     -8.0799199456
4
# ORCA AIMD Position Step 65, t=32.50 fs, E_Pot=-39.82426553 Hartree, Unit is Angstrom
 C     12.4890220405     -0.6198989335     -7.0281654876
 H     12.1587898071     -1.6381455834     -6.7313165700
 H     13.0620143656      0.0688302314     -6.3631271271
 H     12.4485818328     -0.3933792240     -8.0827276992
4
# ORCA AIMD Position Step 66, t=33.00 fs, E_Pot=-39.82463113 Hartree, Unit is Angstrom
 C     12.4885136969     -0.6211283083     -7.0264639569
 H     12.1558123332     -1.6280358122     -6.7313662575
 H     13.0547648585      0.0669009982     -6.3527604836
 H     12.4482454059     -0.3888910499     -8.0856485167
4
# ORCA AIMD Position Step 67, t=33.50 fs, E_Pot=-39.82499455 Hartree, Unit is Angstrom
 C     12.4880975366     -0.6223405709     -7.0247069386
 H     12.1534784940     -1.6162234810     -6.7311512250
 H     13.0458956068      0.0628754145     -6.3438127516
 H     12.4478608058     -0.3842094228     -8.0881965768
4
# ORCA AIMD Position Step 68, t=34.00 fs, E_Pot=-39.82527168 Hartree, Unit is Angstrom
 C     12.4877873321     -0.6234657771     -7.0229467095
 H     12.1514915560     -1.6035726490     -6.7304873350
 H     13.0355009460      0.0568854407     -6.3362970312
 H     12.4474670776     -0.3794358941     -8.0899204139
4
# ORCA AIMD Position Step 69, t=34.50 fs, E_Pot=-39.82541000 Hartree, Unit is Angstrom
 C     12.4875927728     -0.6244376697     -7.0212407289
 H     12.1495097534     -1.5910413309     -6.7291736786
 H     13.0237759013      0.0491927297     -6.3301056246
 H     12.4470965656     -0.3746637477     -8.0904447745
4
# ORCA AIMD Position Step 70, t=35.00 fs, E_Pot=-39.82540852 Hartree, Unit is Angstrom
 C     12.4875183042     -0.6251998109     -7.0196478596
 H     12.1471696775     -1.5796077051     -6.7270125267
 H     13.0110072969      0.0401816836     -6.3250093369
 H     12.4467741545     -0.3699717872     -8.0894962628
4
# ORCA AIMD Position Step 71, t=35.50 fs, E_Pot=-39.82531815 Hartree, Unit is Angstrom
 C     12.4875611552     -0.6257137889     -7.0182237771
 H     12.1441235479     -1.5701644921     -6.7238386463
 H     12.9975600260      0.0303455401     -6.3206637898
 H     12.4465171009     -0.3654182800     -8.0869222736
4
# ORCA AIMD Position Step 72, t=36.00 fs, E_Pot=-39.82521704 Hartree, Unit is Angstrom
 C     12.4877091782     -0.6259672494     -7.0170156087
 H     12.1400849328     -1.5634031159     -6.7195530965
 H     12.9838571574      0.0202609684     -6.3166269610
 H     12.4463348141     -0.3610357111     -8.0827034129
4
# ORCA AIMD Position Step 73, t=36.50 fs, E_Pot=-39.82517205 Hartree, Unit is Angstrom
 C     12.4879399111     -0.6259793594     -7.0160563988
 H     12.1348706300     -1.5597139935     -6.7141531608
 H     12.9703489099      0.0105498736     -6.3123908320
 H     12.4462290742     -0.3568271809     -8.0769578128
4
# ORCA AIMD Position Step 74, t=37.00 fs, E_Pot=-39.82520879 Hartree, Unit is Angstrom
 C     12.4882215470     -0.6258011981     -7.0153596459
 H     12.1284293808     -1.5591308060     -6.7077503316
 H     12.9574721137      0.0018263005     -6.3074311613
 H     12.4461942794     -0.3527643784     -8.0699385110
4
# ORCA AIMD Position Step 75, t=37.50 fs, E_Pot=-39.82530666 Hartree, Unit is Angstrom
 C     12.4885163080     -0.6255098551     -7.0149147413
 H     12.1208483266     -1.5613365083     -6.7005697334
 H     12.9456031584     -0.0053676778     -6.3012737584
 H     12.4462178704     -0.3487877746     -8.0620221789
4
# ORCA AIMD Position Step 76, t=38.00 fs, E_Pot=-39.82541602 Hartree, Unit is Angstrom
 C     12.4887857347     -0.6251963238     -7.0146843666
 H     12.1123357215     -1.5657329250     -6.6929293633
 H     12.9350116530     -0.0106317243     -6.2935727111
 H     12.4462810182     -0.3448115103     -8.0536827165
4
# ORCA AIMD Position Step 77, t=38.50 fs, E_Pot=-39.82548177 Hartree, Unit is Angstrom
 C     12.4889961985     -0.6249534217     -7.0146049442
 H     12.1031844664     -1.5715393867     -6.6852064683
 H     12.9258297670     -0.0137489057     -6.2841656360
 H     12.4463601239     -0.3407270252     -8.0454642837
4
# ORCA AIMD Position Step 78, t=39.00 fs, E_Pot=-39.82546230 Hartree, Unit is Angstrom
 C     12.4891232863     -0.6248637389     -7.0145899474
 H     12.0937326423     -1.5778978721     -6.6778022102
 H     12.9180373199     -0.0147134954     -6.2731182930
 H     12.4464289709     -0.3364136998     -8.0379325273
4
# ORCA AIMD Position Step 79, t=39.50 fs, E_Pot=-39.82534271 Hartree, Unit is Angstrom
 C     12.4891539497     -0.6249889699     -7.0145390601
 H     12.0843196716     -1.5839879206     -6.6710998171
 H     12.9114771784     -0.0137246284     -6.2607258981
 H     12.4464614934     -0.3317573998     -8.0316058684
4
# ORCA AIMD Position Step 80, t=40.00 fs, E_Pot=-39.82514044 Hartree, Unit is Angstrom
 C     12.4890858827     -0.6253668300     -7.0143488627
 H     12.0752559106     -1.5890914286     -6.6654389410
 H     12.9058895688     -0.0111423889     -6.2474721576
 H     12.4464351937     -0.3266663356     -8.0268946389
4
# ORCA AIMD Position Step 81, t=40.50 fs, E_Pot=-39.82490108 Hartree, Unit is Angstrom
 C     12.4889254111     -0.6260108001     -7.0139249032
 H     12.0668000993     -1.5926373845     -6.6610966807
 H     12.9009565421     -0.0074283662     -6.2339629639
 H     12.4463342884     -0.3210888606     -8.0240423879
4
# ORCA AIMD Position Step 82, t=41.00 fs, E_Pot=-39.82468247 Hartree, Unit is Angstrom
 C     12.4886845071     -0.6269120398     -7.0131924088
 H     12.0591462704     -1.5942264703     -6.6582763133
 H     12.8963483251     -0.0030836295     -6.2208504281
 H     12.4461519578     -0.3150281404     -8.0230853956
4
# ORCA AIMD Position Step 83, t=41.50 fs, E_Pot=-39.82453412 Hartree, Unit is Angstrom
 C     12.4883785387     -0.6280426563     -7.0121033663
 H     12.0524148969     -1.5936398319     -6.6571020497
 H     12.8917581096      0.0014058134     -6.2087631716
 H     12.4458912286     -0.3085490066     -8.0238432352
4
# ORCA AIMD Position Step 84, t=42.00 fs, E_Pot=-39.82448181 Hartree, Unit is Angstrom
 C     12.4880246334     -0.6293591054     -7.0106393710
 H     12.0466483336     -1.5908405702     -6.6576175546
 H     12.8869268490      0.0056090171     -6.1982520372
 H     12.4455642839     -0.3017759478     -8.0259406631
4
# ORCA AIMD Position Step 85, t=42.50 fs, E_Pot=-39.82452308 Hartree, Unit is Angstrom
 C     12.4876406817     -0.6308055295     -7.0088104967
 H     12.0418092822     -1.5859707188     -6.6597872890
 H     12.8816586377      0.0091758107     -6.1897530132
 H     12.4451905728     -0.2948820463     -8.0288569252
4
# ORCA AIMD Position Step 86, t=43.00 fs, E_Pot=-39.82463202 Hartree, Unit is Angstrom
 C     12.4872451422     -0.6323171019     -7.0066513466
 H     12.0377802401     -1.5793437240     -6.6635002299
 H     12.8758262630      0.0118514667     -6.1835654414
 H     12.4447942157     -0.2880712883     -8.0319910000
4
# ORCA AIMD Position Step 87, t=43.50 fs, E_Pot=-39.82476978 Hartree, Unit is Angstrom
 C     12.4868564722     -0.6338240170     -7.0042151505
 H     12.0343691775     -1.5714280834     -6.6685782888
 H     12.8693748042      0.0134849903     -6.1798396569
 H     12.4444015655     -0.2815556481     -8.0347359682
4
# ORCA AIMD Position Step 88, t=44.00 fs, E_Pot=-39.82489713 Hartree, Unit is Angstrom
 C     12.4864937296     -0.6352543590     -7.0015688866
 H     12.0313131674     -1.5628269367     -6.6747855428
 H     12.8623135222      0.0140275852     -6.1785781382
 H     12.4440385622     -0.2755397598     -8.0365268107
4
# ORCA AIMD Position Step 89, t=44.50 fs, E_Pot=-39.82498734 Hartree, Unit is Angstrom
 C     12.4861757575     -0.6365385324     -6.9987884106
 H     12.0282910501     -1.5542463524     -6.6818413474
 H     12.8547145227      0.0135357472     -6.1796302119
 H     12.4437291384     -0.2702029289     -8.0368906419
4
# ORCA AIMD Position Step 90, t=45.00 fs, E_Pot=-39.82503581 Hartree, Unit is Angstrom
 C     12.4859186991     -0.6376161845     -6.9959517587
 H     12.0249575222     -1.5464257900     -6.6894494988
 H     12.8467091324      0.0121672452     -6.1827007113
 H     12.4434943689     -0.2656821949     -8.0354886739
4
# ORCA AIMD Position Step 91, t=45.50 fs, E_Pot=-39.82506020 Hartree, Unit is Angstrom
 C     12.4857340772     -0.6384421226     -6.9931351244
 H     12.0209753025     -1.5400696679     -6.6973221584
 H     12.8384793279      0.0101754073     -6.1873577922
 H     12.4433517644     -0.2620645666     -8.0321323872
4
# ORCA AIMD Position Step 92, t=46.00 fs, E_Pot=-39.82508893 Hartree, Unit is Angstrom
 C     12.4856258724     -0.6389929867     -6.9904080827
 H     12.0160597546     -1.5357627368     -6.7052080573
 H     12.8302484159      0.0078972806     -6.1930496908
 H     12.4433147859     -0.2593803290     -8.0267954411
4
# ORCA AIMD Position Step 93, t=46.50 fs, E_Pot=-39.82514205 Hartree, Unit is Angstrom
 C     12.4855880728     -0.6392725882     -6.9878290175
 H     12.0100230879     -1.5338893236     -6.7129160680
 H     12.8222662472      0.0057331638     -6.1991327656
 H     12.4433926427     -0.2575997268     -8.0196165441
4
# ORCA AIMD Position Step 94, t=47.00 fs, E_Pot=-39.82521615 Hartree, Unit is Angstrom
 C     12.4856034148     -0.6393140313     -6.9854407408
 H     12.0028092559     -1.5345757667     -6.7203285522