Job execution start: Tue Oct 25 00:43:12 CEST 2022
Shared library path: /home/cs681498/orca:/opt/MPI/openmpi-4.1.1/linux/gcc_4.8.5/lib:/opt/MPI/openmpi-4.1.1/linux/gcc_4.8.5/lib/lib32
Slurm Job ID is: 30556555
Slurm Job name is: 17898
ncm0207

                                 *****************
                                 * O   R   C   A *
                                 *****************

                                            #,                                       
                                            ###                                      
                                            ####                                     
                                            #####                                    
                                            ######                                   
                                           ########,                                 
                                     ,,################,,,,,                         
                               ,,#################################,,                 
                          ,,##########################################,,             
                       ,#########################################, ''#####,          
                    ,#############################################,,   '####,        
                  ,##################################################,,,,####,       
                ,###########''''           ''''###############################       
              ,#####''   ,,,,##########,,,,          '''####'''          '####       
            ,##' ,,,,###########################,,,                        '##       
           ' ,,###''''                  '''############,,,                           
         ,,##''                                '''############,,,,        ,,,,,,###''
      ,#''                                            '''#######################'''  
     '                                                          ''''####''''         
             ,#######,   #######,   ,#######,      ##                                
            ,#'     '#,  ##    ##  ,#'     '#,    #''#        ######   ,####,        
            ##       ##  ##   ,#'  ##            #'  '#       #        #'  '#        
            ##       ##  #######   ##           ,######,      #####,   #    #        
            '#,     ,#'  ##    ##  '#,     ,#' ,#      #,         ##   #,  ,#        
             '#######'   ##     ##  '#######'  #'      '#     #####' # '####'        



                  #######################################################
                  #                        -***-                        #
                  #          Department of theory and spectroscopy      #
                  #    Directorship and core code : Frank Neese         #
                  #        Max Planck Institute fuer Kohlenforschung    #
                  #                Kaiser Wilhelm Platz 1               #
                  #                 D-45470 Muelheim/Ruhr               #
                  #                      Germany                        #
                  #                                                     #
                  #                  All rights reserved                #
                  #                        -***-                        #
                  #######################################################


                         Program Version 5.0.3 -  RELEASE  -


 With contributions from (in alphabetic order):
   Daniel Aravena         : Magnetic Suceptibility
   Michael Atanasov       : Ab Initio Ligand Field Theory (pilot matlab implementation)
   Alexander A. Auer      : GIAO ZORA, VPT2 properties, NMR spectrum
   Ute Becker             : Parallelization
   Giovanni Bistoni       : ED, misc. LED, open-shell LED, HFLD
   Martin Brehm           : Molecular dynamics
   Dmytro Bykov           : SCF Hessian
   Vijay G. Chilkuri      : MRCI spin determinant printing, contributions to CSF-ICE
   Dipayan Datta          : RHF DLPNO-CCSD density
   Achintya Kumar Dutta   : EOM-CC, STEOM-CC
   Dmitry Ganyushin       : Spin-Orbit,Spin-Spin,Magnetic field MRCI
   Miquel Garcia          : C-PCM and meta-GGA Hessian, CC/C-PCM, Gaussian charge scheme
   Yang Guo               : DLPNO-NEVPT2, F12-NEVPT2, CIM, IAO-localization
   Andreas Hansen         : Spin unrestricted coupled pair/coupled cluster methods
   Benjamin Helmich-Paris : MC-RPA, TRAH-SCF, COSX integrals
   Lee Huntington         : MR-EOM, pCC
   Robert Izsak           : Overlap fitted RIJCOSX, COSX-SCS-MP3, EOM
   Marcus Kettner         : VPT2
   Christian Kollmar      : KDIIS, OOCD, Brueckner-CCSD(T), CCSD density, CASPT2, CASPT2-K
   Simone Kossmann        : Meta GGA functionals, TD-DFT gradient, OOMP2, MP2 Hessian
   Martin Krupicka        : Initial AUTO-CI
   Lucas Lang             : DCDCAS
   Marvin Lechner         : AUTO-CI (C++ implementation), FIC-MRCC
   Dagmar Lenk            : GEPOL surface, SMD
   Dimitrios Liakos       : Extrapolation schemes; Compound Job, initial MDCI parallelization
   Dimitrios Manganas     : Further ROCIS development; embedding schemes
   Dimitrios Pantazis     : SARC Basis sets
   Anastasios Papadopoulos: AUTO-CI, single reference methods and gradients
   Taras Petrenko         : DFT Hessian,TD-DFT gradient, ASA, ECA, R-Raman, ABS, FL, XAS/XES, NRVS
   Peter Pinski           : DLPNO-MP2, DLPNO-MP2 Gradient
   Christoph Reimann      : Effective Core Potentials
   Marius Retegan         : Local ZFS, SOC
   Christoph Riplinger    : Optimizer, TS searches, QM/MM, DLPNO-CCSD(T), (RO)-DLPNO pert. Triples
   Tobias Risthaus        : Range-separated hybrids, TD-DFT gradient, RPA, STAB
   Michael Roemelt        : Original ROCIS implementation
   Masaaki Saitow         : Open-shell DLPNO-CCSD energy and density
   Barbara Sandhoefer     : DKH picture change effects
   Avijit Sen             : IP-ROCIS
   Kantharuban Sivalingam : CASSCF convergence, NEVPT2, FIC-MRCI
   Bernardo de Souza      : ESD, SOC TD-DFT
   Georgi Stoychev        : AutoAux, RI-MP2 NMR, DLPNO-MP2 response
   Willem Van den Heuvel  : Paramagnetic NMR
   Boris Wezisla          : Elementary symmetry handling
   Frank Wennmohs         : Technical directorship


 We gratefully acknowledge several colleagues who have allowed us to
 interface, adapt or use parts of their codes:
   Stefan Grimme, W. Hujo, H. Kruse, P. Pracht,  : VdW corrections, initial TS optimization,
                  C. Bannwarth, S. Ehlert          DFT functionals, gCP, sTDA/sTD-DF
   Ed Valeev, F. Pavosevic, A. Kumar             : LibInt (2-el integral package), F12 methods
   Garnet Chan, S. Sharma, J. Yang, R. Olivares  : DMRG
   Ulf Ekstrom                                   : XCFun DFT Library
   Mihaly Kallay                                 : mrcc  (arbitrary order and MRCC methods)
   Jiri Pittner, Ondrej Demel                    : Mk-CCSD
   Frank Weinhold                                : gennbo (NPA and NBO analysis)
   Christopher J. Cramer and Donald G. Truhlar   : smd solvation model
   Lars Goerigk                                  : TD-DFT with DH, B97 family of functionals
   V. Asgeirsson, H. Jonsson                     : NEB implementation
   FAccTs GmbH                                   : IRC, NEB, NEB-TS, DLPNO-Multilevel, CI-OPT
                                                   MM, QMMM, 2- and 3-layer-ONIOM, Crystal-QMMM,
                                                   LR-CPCM, SF, NACMEs, symmetry and pop. for TD-DFT,
                                                   nearIR, NL-DFT gradient (VV10), updates on ESD,
                                                   ML-optimized integration grids
   S Lehtola, MJT Oliveira, MAL Marques          : LibXC Library
   Liviu Ungur et al                             : ANISO software


 Your calculation uses the libint2 library for the computation of 2-el integrals
 For citations please refer to: http://libint.valeyev.net

 Your ORCA version has been built with support for libXC version: 5.1.0
 For citations please refer to: https://tddft.org/programs/libxc/

 This ORCA versions uses:
   CBLAS   interface :  Fast vector & matrix operations
   LAPACKE interface :  Fast linear algebra routines
   SCALAPACK package :  Parallel linear algebra routines
   Shared memory     :  Shared parallel matrices
   BLAS/LAPACK       :  OpenBLAS 0.3.15  USE64BITINT DYNAMIC_ARCH NO_AFFINITY SkylakeX SINGLE_THREADED
        Core in use  :  SkylakeX
   Copyright (c) 2011-2014, The OpenBLAS Project


================================================================================

----- Orbital basis set information -----
Your calculation utilizes the basis: EPR-III
   V. Barone, in Recent Advances in Density Functional Methods, Part 1 (ed. D. P. Chong), World Scientific, Singapore, 1995, p. 287.
   N. Rega, M. Cossi and V. Barone, J. Chem. Phys. 105, 11060 (1996).

----- AuxJ basis set information -----
Your calculation utilizes the AutoAux generation procedure.
  G. L. Stoychev, A. A. Auer, F. Neese, J. Chem. Theory Comput. 13, 554 (2017)

----- AuxC basis set information -----
Your calculation utilizes the AutoAux generation procedure.
  G. L. Stoychev, A. A. Auer, F. Neese, J. Chem. Theory Comput. 13, 554 (2017)

----- AuxJK basis set information -----
Your calculation utilizes the AutoAux generation procedure.
  G. L. Stoychev, A. A. Auer, F. Neese, J. Chem. Theory Comput. 13, 554 (2017)

================================================================================
                                        WARNINGS
                       Please study these warnings very carefully!
================================================================================


WARNING: your system is open-shell and RHF/RKS was chosen
  ===> : WILL SWITCH to UHF/UKS


INFO   : the flag for use of the SHARK integral package has been found!

================================================================================
                                       INPUT FILE
================================================================================
NAME = /home/rwth0701/scratch/cs681498/orcajob__30556555-Uzxc/17898.inp
|  1> !B3LYP EPR-III Autoaux
|  2> !PAL4
|  3> 
|  4> * xyz 0 2
|  5>  C    -84.0603648769   -111.3890355431    -31.3595968536
|  6>  H    -84.3446147990   -112.4469395482    -31.4536849745
|  7>  H    -83.0289957852   -111.1778288877    -31.2881614386
|  8>  H    -85.0291198090   -110.7352372582    -31.3406259133
|  9> *
| 10> 
| 11> %EPRNMR
| 12>         GTENSOR   TRUE
| 13>         NUCLEI    = ALL H {AISO, ADIP, AORB}
| 14>         NUCLEI    = ALL C {AISO, ADIP, AORB}
| 15> END
| 16> 
| 17> 
| 18>                          ****END OF INPUT****
================================================================================

                       ****************************
                       * Single Point Calculation *
                       ****************************

---------------------------------
CARTESIAN COORDINATES (ANGSTROEM)
---------------------------------
  C    -84.060365  -111.389036  -31.359597
  H    -84.344615  -112.446940  -31.453685
  H    -83.028996  -111.177829  -31.288161
  H    -85.029120  -110.735237  -31.340626

----------------------------
CARTESIAN COORDINATES (A.U.)
----------------------------
  NO LB      ZA    FRAG     MASS         X           Y           Z
   0 C     6.0000    0    12.011  -158.851068  -210.494771  -59.261050
   1 H     1.0000    0     1.008  -159.388223  -212.493920  -59.438851
   2 H     1.0000    0     1.008  -156.902063  -210.095649  -59.126056
   3 H     1.0000    0     1.008  -160.681750  -209.259272  -59.225200

--------------------------------
INTERNAL COORDINATES (ANGSTROEM)
--------------------------------
 C      0   0   0     0.000000000000     0.00000000     0.00000000
 H      1   0   0     1.099459629416     0.00000000     0.00000000
 H      1   2   0     1.055193571396   116.81338360     0.00000000
 H      1   2   3     1.168887596128   108.98444312   181.16912975

---------------------------
INTERNAL COORDINATES (A.U.)
---------------------------
 C      0   0   0     0.000000000000     0.00000000     0.00000000
 H      1   0   0     2.077677594898     0.00000000     0.00000000
 H      1   2   0     1.994026868213   116.81338360     0.00000000
 H      1   2   3     2.208877438020   108.98444312   181.16912975

---------------------
BASIS SET INFORMATION
---------------------
There are 2 groups of distinct atoms

 Group   1 Type C   : 12s8p2d1f contracted to 8s5p2d1f pattern {51111111/41111/11/1}
 Group   2 Type H   : 7s2p contracted to 5s2p pattern {31111/11}

Atom   0C    basis set group =>   1
Atom   1H    basis set group =>   2
Atom   2H    basis set group =>   2
Atom   3H    basis set group =>   2
---------------------------------
AUXILIARY/J BASIS SET INFORMATION
---------------------------------
There are 2 groups of distinct atoms

 Group   1 Type C   : 20s17p16d8f3g contracted to 20s17p16d8f3g pattern {11111111111111111111/11111111111111111/1111111111111111/11111111/111}
 Group   2 Type H   : 17s7p3d contracted to 17s7p3d pattern {11111111111111111/1111111/111}

Atom   0C    basis set group =>   1
Atom   1H    basis set group =>   2
Atom   2H    basis set group =>   2
Atom   3H    basis set group =>   2
---------------------------------
AUXILIARY/C BASIS SET INFORMATION
---------------------------------
There are 2 groups of distinct atoms

 Group   1 Type C   : 20s17p16d8f3g contracted to 20s17p16d8f3g pattern {11111111111111111111/11111111111111111/1111111111111111/11111111/111}
 Group   2 Type H   : 17s7p3d contracted to 17s7p3d pattern {11111111111111111/1111111/111}

Atom   0C    basis set group =>   1
Atom   1H    basis set group =>   2
Atom   2H    basis set group =>   2
Atom   3H    basis set group =>   2
----------------------------------
AUXILIARY/JK BASIS SET INFORMATION
----------------------------------
There are 2 groups of distinct atoms

 Group   1 Type C   : 20s17p16d8f3g contracted to 20s17p16d8f3g pattern {11111111111111111111/11111111111111111/1111111111111111/11111111/111}
 Group   2 Type H   : 17s7p3d contracted to 17s7p3d pattern {11111111111111111/1111111/111}

Atom   0C    basis set group =>   1
Atom   1H    basis set group =>   2
Atom   2H    basis set group =>   2
Atom   3H    basis set group =>   2


           ************************************************************
           *        Program running with 4 parallel MPI-processes     *
           *              working on a common directory               *
           ************************************************************
------------------------------------------------------------------------------
                           ORCA GTO INTEGRAL CALCULATION
                           -- RI-GTO INTEGRALS CHOSEN --
------------------------------------------------------------------------------
------------------------------------------------------------------------------
                   ___                                                        
                  /   \      - P O W E R E D   B Y -                         
                 /     \                                                     
                 |  |  |   _    _      __       _____    __    __             
                 |  |  |  | |  | |    /  \     |  _  \  |  |  /  |          
                  \  \/   | |  | |   /    \    | | | |  |  | /  /          
                 / \  \   | |__| |  /  /\  \   | |_| |  |  |/  /          
                |  |  |   |  __  | /  /__\  \  |    /   |      \           
                |  |  |   | |  | | |   __   |  |    \   |  |\   \          
                \     /   | |  | | |  |  |  |  | |\  \  |  | \   \       
                 \___/    |_|  |_| |__|  |__|  |_| \__\ |__|  \__/        
                                                                              
                      - O R C A' S   B I G   F R I E N D -                    
                                      &                                       
                       - I N T E G R A L  F E E D E R -                       
                                                                              
 v1 FN, 2020, v2 2021                                                         
------------------------------------------------------------------------------


Reading SHARK input file /home/rwth0701/scratch/cs681498/orcajob__30556555-Uzxc/17898.SHARKINP.tmp ... ok
----------------------
SHARK INTEGRAL PACKAGE
----------------------

Number of atoms                             ...      4
Number of basis functions                   ...     73
Number of shells                            ...     37
Maximum angular momentum                    ...      3
Integral batch strategy                     ... SHARK/LIBINT Hybrid
RI-J (if used) integral strategy            ... SPLIT-RIJ (Revised 2003 algorithm where possible)
Printlevel                                  ...      1
Contraction scheme used                     ... SEGMENTED contraction
Coulomb Range Separation                    ... NOT USED
Exchange Range Separation                   ... NOT USED
Finite Nucleus Model                        ... NOT USED
Auxiliary Coulomb fitting basis             ... AVAILABLE
   # of basis functions in Aux-J            ...    393
   # of shells in Aux-J                     ...    145
   Maximum angular momentum in Aux-J        ...      4
Auxiliary J/K fitting basis                 ... AVAILABLE
   # of basis functions in Aux-JK           ...    393
   # of shells in Aux-JK                    ...    145
   Maximum angular momentum in Aux-JK       ...      4
Auxiliary Correlation fitting basis         ... AVAILABLE
   # of basis functions in Aux-C            ...    393
   # of shells in Aux-C                     ...    145
   Maximum angular momentum in Aux-C        ...      4
Auxiliary 'external' fitting basis          ... NOT available
Integral threshold                          ...     1.000000e-10
Primitive cut-off                           ...     1.000000e-11
Primitive pair pre-selection threshold      ...     1.000000e-11

Calculating pre-screening integrals         ... done (  0.0 sec) Dimension = 37
Organizing shell pair data                  ... done (  0.0 sec)
Shell pair information
Total number of shell pairs                 ...       703
Shell pairs after pre-screening             ...       688
Total number of primitive shell pairs       ...      1300
Primitive shell pairs kept                  ...      1182
          la=0 lb=0:    261 shell pairs
          la=1 lb=0:    253 shell pairs
          la=1 lb=1:     66 shell pairs
          la=2 lb=0:     46 shell pairs
          la=2 lb=1:     22 shell pairs
          la=2 lb=2:      3 shell pairs
          la=3 lb=0:     23 shell pairs
          la=3 lb=1:     11 shell pairs
          la=3 lb=2:      2 shell pairs
          la=3 lb=3:      1 shell pairs

Calculating one electron integrals          ... done (  0.0 sec)
Calculating RI/J V-Matrix + Cholesky decomp.... done (  0.1 sec)
Calculating RI/JK V-Matrix + Cholesky decomp... done (  0.1 sec)
Calculating RI/C V-Matrix + Cholesky decomp.... done (  0.1 sec)
Calculating Nuclear repulsion               ... done (  0.0 sec) ENN=      9.446198159691 Eh

SHARK setup successfully completed in   0.5 seconds

Maximum memory used throughout the entire GTOINT-calculation: 13.7 MB


           ************************************************************
           *        Program running with 4 parallel MPI-processes     *
           *              working on a common directory               *
           ************************************************************
-------------------------------------------------------------------------------
                                 ORCA SCF
-------------------------------------------------------------------------------

------------
SCF SETTINGS
------------
Hamiltonian:
 Density Functional     Method          .... DFT(GTOs)
 Exchange Functional    Exchange        .... B88
   X-Alpha parameter    XAlpha          ....  0.666667
   Becke's b parameter  XBeta           ....  0.004200
 Correlation Functional Correlation     .... LYP
 LDA part of GGA corr.  LDAOpt          .... VWN-5
 Gradients option       PostSCFGGA      .... off
 Hybrid DFT is turned on
   Fraction HF Exchange ScalHFX         ....  0.200000
   Scaling of DF-GGA-X  ScalDFX         ....  0.720000
   Scaling of DF-GGA-C  ScalDFC         ....  0.810000
   Scaling of DF-LDA-C  ScalLDAC        ....  1.000000
   Perturbative correction              ....  0.000000
   Density functional embedding theory  .... OFF
   NL short-range parameter             ....  4.800000
 RI-approximation to the Coulomb term is turned on
   Number of AuxJ basis functions       .... 393
   RIJ-COSX (HFX calculated with COS-X)).... on


General Settings:
 Integral files         IntName         .... /home/rwth0701/scratch/cs681498/orcajob__30556555-Uzxc/17898
 Hartree-Fock type      HFTyp           .... UHF
 Total Charge           Charge          ....    0
 Multiplicity           Mult            ....    2
 Number of Electrons    NEL             ....    9
 Basis Dimension        Dim             ....   73
 Nuclear Repulsion      ENuc            ....      9.4461981597 Eh

Convergence Acceleration:
 DIIS                   CNVDIIS         .... on
   Start iteration      DIISMaxIt       ....    12
   Startup error        DIISStart       ....  0.200000
   # of expansion vecs  DIISMaxEq       ....     5
   Bias factor          DIISBfac        ....   1.050
   Max. coefficient     DIISMaxC        ....  10.000
 Trust-Rad. Augm. Hess. CNVTRAH         .... auto
   Auto Start mean grad. ratio tolernc. ....  1.125000
   Auto Start start iteration           ....    20
   Auto Start num. interpolation iter.  ....    10
   Max. Number of Micro iterations      ....    16
   Max. Number of Macro iterations      .... Maxiter - #DIIS iter
   Number of Davidson start vectors     ....     2
   Converg. threshold I  (grad. norm)   ....   5.000e-05
   Converg. threshold II (energy diff.) ....   1.000e-06
   Grad. Scal. Fac. for Micro threshold ....   0.100
   Minimum threshold for Micro iter.    ....   0.010
   NR start threshold (gradient norm)   ....   0.001
   Initial trust radius                 ....   0.400
   Minimum AH scaling param. (alpha)    ....   1.000
   Maximum AH scaling param. (alpha)    .... 1000.000
   Orbital update algorithm             .... Taylor
   White noise on init. David. guess    .... on
   Maximum white noise                  ....   0.010
   Quad. conv. algorithm                .... NR
 SOSCF                  CNVSOSCF        .... off
 Level Shifting         CNVShift        .... on
   Level shift para.    LevelShift      ....    0.2500
   Turn off err/grad.   ShiftErr        ....    0.0010
 Zerner damping         CNVZerner       .... off
 Static damping         CNVDamp         .... on
   Fraction old density DampFac         ....    0.7000
   Max. Damping (<1)    DampMax         ....    0.9800
   Min. Damping (>=0)   DampMin         ....    0.0000
   Turn off err/grad.   DampErr         ....    0.1000
 Fernandez-Rico         CNVRico         .... off

SCF Procedure:
 Maximum # iterations   MaxIter         ....   125
 SCF integral mode      SCFMode         .... Direct
   Integral package                     .... SHARK and LIBINT hybrid scheme
 Reset frequency        DirectResetFreq ....    20
 Integral Threshold     Thresh          ....  1.000e-10 Eh
 Primitive CutOff       TCut            ....  1.000e-11 Eh

Convergence Tolerance:
 Convergence Check Mode ConvCheckMode   .... Total+1el-Energy
 Convergence forced     ConvForced      .... 0
 Energy Change          TolE            ....  1.000e-06 Eh
 1-El. energy change                    ....  1.000e-03 Eh
 DIIS Error             TolErr          ....  1.000e-06


Diagonalization of the overlap matrix:
Smallest eigenvalue                        ... 1.664e-03
Time for diagonalization                   ...    0.002 sec
Threshold for overlap eigenvalues          ... 1.000e-08
Number of eigenvalues below threshold      ... 0
Time for construction of square roots      ...    0.009 sec
Total time needed                          ...    0.010 sec

Time for model grid setup =    0.039 sec

------------------------------
INITIAL GUESS: MODEL POTENTIAL
------------------------------
Loading Hartree-Fock densities                     ... done
Calculating cut-offs                               ... done
Initializing the effective Hamiltonian             ... done
Setting up the integral package (SHARK)            ... done
Starting the Coulomb interaction                   ... done (   0.0 sec)
Reading the grid                                   ... done
Mapping shells                                     ... done
Starting the XC term evaluation                    ... done (   0.0 sec)
  promolecular density results
     # of electrons  =      8.998725698
     EX              =     -5.958863628
     EC              =     -0.259418147
     EX+EC           =     -6.218281775
Transforming the Hamiltonian                       ... done (   0.0 sec)
Diagonalizing the Hamiltonian                      ... done (   0.0 sec)
Back transforming the eigenvectors                 ... done (   0.0 sec)
Now organizing SCF variables                       ... done
                      ------------------
                      INITIAL GUESS DONE (   0.1 sec)
                      ------------------
-------------------
DFT GRID GENERATION
-------------------

General Integration Accuracy     IntAcc      ... 4.388
Radial Grid Type                 RadialGrid  ... OptM3 with GC (2021)
Angular Grid (max. ang.)         AngularGrid ... 4 (Lebedev-302)
Angular grid pruning method      GridPruning ... 4 (adaptive)
Weight generation scheme         WeightScheme... Becke
Basis function cutoff            BFCut       ... 1.0000e-10
Integration weight cutoff        WCut        ... 1.0000e-14
Angular grids for H and He will be reduced by one unit
Partially contracted basis set               ... off
Rotationally invariant grid construction     ... off

Total number of grid points                  ...    17046
Total number of batches                      ...      269
Average number of points per batch           ...       63
Average number of grid points per atom       ...     4262
Time for grid setup =    0.122 sec

--------------------
COSX GRID GENERATION
--------------------

GRIDX 1
-------
General Integration Accuracy     IntAcc      ... 3.816
Radial Grid Type                 RadialGrid  ... OptM3 with GC (2021)
Angular Grid (max. ang.)         AngularGrid ... 1 (Lebedev-50)
Angular grid pruning method      GridPruning ... 4 (adaptive)
Weight generation scheme         WeightScheme... Becke
Basis function cutoff            BFCut       ... 1.0000e-10
Integration weight cutoff        WCut        ... 1.0000e-14
Angular grids for H and He will be reduced by one unit
Partially contracted basis set               ... on
Rotationally invariant grid construction     ... off

Total number of grid points                  ...     2148
Total number of batches                      ...       35
Average number of points per batch           ...       61
Average number of grid points per atom       ...      537
UseSFitting                                  ... on

GRIDX 2
-------
General Integration Accuracy     IntAcc      ... 4.020
Radial Grid Type                 RadialGrid  ... OptM3 with GC (2021)
Angular Grid (max. ang.)         AngularGrid ... 2 (Lebedev-110)
Angular grid pruning method      GridPruning ... 4 (adaptive)
Weight generation scheme         WeightScheme... Becke
Basis function cutoff            BFCut       ... 1.0000e-10
Integration weight cutoff        WCut        ... 1.0000e-14
Angular grids for H and He will be reduced by one unit
Partially contracted basis set               ... on
Rotationally invariant grid construction     ... off

Total number of grid points                  ...     5042
Total number of batches                      ...       81
Average number of points per batch           ...       62
Average number of grid points per atom       ...     1260
UseSFitting                                  ... on

GRIDX 3
-------
General Integration Accuracy     IntAcc      ... 4.338
Radial Grid Type                 RadialGrid  ... OptM3 with GC (2021)
Angular Grid (max. ang.)         AngularGrid ... 3 (Lebedev-194)
Angular grid pruning method      GridPruning ... 4 (adaptive)
Weight generation scheme         WeightScheme... Becke
Basis function cutoff            BFCut       ... 1.0000e-10
Integration weight cutoff        WCut        ... 1.0000e-14
Angular grids for H and He will be reduced by one unit
Partially contracted basis set               ... on
Rotationally invariant grid construction     ... off

Total number of grid points                  ...    11742
Total number of batches                      ...      186
Average number of points per batch           ...       63
Average number of grid points per atom       ...     2936
UseSFitting                                  ... on

Time for X-Grid setup             =    0.322 sec

--------------
SCF ITERATIONS
--------------
ITER       Energy         Delta-E        Max-DP      RMS-DP      [F,P]     Damp
               ***  Starting incremental Fock matrix formation  ***
  0    -39.7805378511   0.000000000000 0.01460617  0.00048565  0.0870348 0.7000
  1    -39.7979337512  -0.017395900064 0.00912312  0.00036368  0.0456481 0.7000
                               ***Turning on DIIS***
  2    -39.8055597231  -0.007625971954 0.01616092  0.00063339  0.0183362 0.0000
  3    -39.8159715004  -0.010411777268 0.00839692  0.00027613  0.0275667 0.0000
  4    -39.8192411440  -0.003269643599 0.00294456  0.00007761  0.0056578 0.0000
  5    -39.8193746043  -0.000133460267 0.00106802  0.00003360  0.0019173 0.0000
  6    -39.8193933020  -0.000018697777 0.00090070  0.00002689  0.0008162 0.0000
               *** Restarting incremental Fock matrix formation ***
                                   *** Resetting DIIS ***
  7    -39.8193990698  -0.000005767814 0.00011527  0.00000335  0.0000898 0.0000
                 **** Energy Check signals convergence ****

               *****************************************************
               *                     SUCCESS                       *
               *           SCF CONVERGED AFTER   8 CYCLES          *
               *****************************************************

Old exchange energy                            =     -1.234908684 Eh
New exchange energy                            =     -1.234909254 Eh
Exchange energy change after final integration =     -0.000000571 Eh
Total energy after final integration           =    -39.819399749 Eh
Final COS-X integration done in                =     0.181 sec

----------------
TOTAL SCF ENERGY
----------------

Total Energy       :          -39.81939975 Eh           -1083.54095 eV

Components:
Nuclear Repulsion  :            9.44619816 Eh             257.04412 eV
Electronic Energy  :          -49.26559791 Eh           -1340.58507 eV
One Electron Energy:          -71.21764878 Eh           -1937.93075 eV
Two Electron Energy:           21.95205087 Eh             597.34567 eV
Max COSX asymmetry :            0.00000003 Eh               0.00000 eV

Virial components:
Potential Energy   :          -79.34148574 Eh           -2158.99159 eV
Kinetic Energy     :           39.52208600 Eh            1075.45063 eV
Virial Ratio       :            2.00752272


DFT components:
N(Alpha)           :        4.999999654633 electrons
N(Beta)            :        4.000000584842 electrons
N(Total)           :        9.000000239476 electrons
E(X)               :       -4.890461945995 Eh       
E(C)               :       -0.308354080858 Eh       
E(XC)              :       -5.198816026853 Eh       
DFET-embed. en.    :        0.000000000000 Eh       

---------------
SCF CONVERGENCE
---------------

  Last Energy change         ...   -1.0844e-07  Tolerance :   1.0000e-06
  Last MAX-Density change    ...    0.0000e+00  Tolerance :   1.0000e-05
  Last RMS-Density change    ...    0.0000e+00  Tolerance :   1.0000e-06
  Last DIIS Error            ...    5.4807e-05  Tolerance :   1.0000e-06

             **** THE GBW FILE WAS UPDATED (/home/rwth0701/scratch/cs681498/orcajob__30556555-Uzxc/17898.gbw) ****
             **** DENSITY /home/rwth0701/scratch/cs681498/orcajob__30556555-Uzxc/17898.scfp WAS UPDATED ****
             **** ENERGY FILE WAS UPDATED (/home/rwth0701/scratch/cs681498/orcajob__30556555-Uzxc/17898.en.tmp) ****
----------------------
UHF SPIN CONTAMINATION
----------------------

Warning: in a DFT calculation there is little theoretical justification to 
         calculate <S**2> as in Hartree-Fock theory. We will do it anyways
         but you should keep in mind that the values have only limited relevance

Expectation value of <S**2>     :     0.754016
Ideal value S*(S+1) for S=0.5   :     0.750000
Deviation                       :     0.004016

             **** THE GBW FILE WAS UPDATED (/home/rwth0701/scratch/cs681498/orcajob__30556555-Uzxc/17898.gbw) ****
             **** DENSITY /home/rwth0701/scratch/cs681498/orcajob__30556555-Uzxc/17898.scfp WAS UPDATED ****
----------------
ORBITAL ENERGIES
----------------
                 SPIN UP ORBITALS
  NO   OCC          E(Eh)            E(eV) 
   0   1.0000     -10.192412      -277.3496 
   1   1.0000      -0.682226       -18.5643 
   2   1.0000      -0.438149       -11.9226 
   3   1.0000      -0.394004       -10.7214 
   4   1.0000      -0.235180        -6.3996 
   5   0.0000      -0.000457        -0.0124 
   6   0.0000       0.033805         0.9199 
   7   0.0000       0.039026         1.0619 
   8   0.0000       0.047306         1.2873 
   9   0.0000       0.073860         2.0098 
  10   0.0000       0.093178         2.5355 
  11   0.0000       0.098966         2.6930 
  12   0.0000       0.211839         5.7644 
  13   0.0000       0.227438         6.1889 
  14   0.0000       0.246500         6.7076 
  15   0.0000       0.275576         7.4988 
  16   0.0000       0.284403         7.7390 
  17   0.0000       0.320629         8.7247 
  18   0.0000       0.337838         9.1930 
  19   0.0000       0.542323        14.7573 
  20   0.0000       0.567931        15.4542 
  21   0.0000       0.724096        19.7036 
  22   0.0000       0.735761        20.0211 
  23   0.0000       0.772944        21.0329 
  24   0.0000       0.815567        22.1927 
  25   0.0000       0.888709        24.1830 
  26   0.0000       0.895654        24.3720 
  27   0.0000       0.935011        25.4429 
  28   0.0000       0.939097        25.5541 
  29   0.0000       1.037823        28.2406 
  30   0.0000       1.070318        29.1248 
  31   0.0000       1.137934        30.9648 
  32   0.0000       1.159414        31.5493 
  33   0.0000       1.164832        31.6967 
  34   0.0000       1.418656        38.6036 
  35   0.0000       1.438984        39.1567 
  36   0.0000       1.503496        40.9122 
  37   0.0000       1.704019        46.3687 
  38   0.0000       1.713005        46.6132 
  39   0.0000       1.785741        48.5925 
  40   0.0000       2.718968        73.9869 
  41   0.0000       2.745763        74.7160 
  42   0.0000       2.848445        77.5101 
  43   0.0000       2.894559        78.7650 
  44   0.0000       2.954126        80.3859 
  45   0.0000       2.970898        80.8422 
  46   0.0000       2.984565        81.2141 
  47   0.0000       3.132106        85.2289 
  48   0.0000       3.160889        86.0122 
  49   0.0000       3.252252        88.4983 
  50   0.0000       3.270228        88.9874 
  51   0.0000       3.556934        96.7891 
  52   0.0000       3.720676       101.2447 
  53   0.0000       3.796248       103.3012 
  54   0.0000       3.878513       105.5397 
  55   0.0000       3.911693       106.4426 
  56   0.0000       4.038152       109.8837 
  57   0.0000       4.086386       111.1962 
  58   0.0000       4.144481       112.7771 
  59   0.0000       4.150382       112.9376 
  60   0.0000       4.484758       122.0365 
  61   0.0000       5.019689       136.5927 
  62   0.0000       5.306181       144.3885 
  63   0.0000       5.426417       147.6603 
  64   0.0000       5.561666       151.3406 
  65   0.0000       5.953658       162.0073 
  66   0.0000       6.124852       166.6657 
  67   0.0000       7.660551       208.4542 
  68   0.0000      29.024565       789.7986 
  69   0.0000      37.072717      1008.7999 
  70   0.0000      37.177254      1011.6445 
  71   0.0000      37.232960      1013.1604 
  72   0.0000     133.474002      3632.0122 

                 SPIN DOWN ORBITALS
  NO   OCC          E(Eh)            E(eV) 
   0   1.0000     -10.177792      -276.9518 
   1   1.0000      -0.642558       -17.4849 
   2   1.0000      -0.429106       -11.6766 
   3   1.0000      -0.384534       -10.4637 
   4   0.0000      -0.077271        -2.1027 
   5   0.0000       0.003034         0.0826 
   6   0.0000       0.033577         0.9137 
   7   0.0000       0.038680         1.0525 
   8   0.0000       0.060623         1.6496 
   9   0.0000       0.076975         2.0946 
  10   0.0000       0.097822         2.6619 
  11   0.0000       0.099025         2.6946 
  12   0.0000       0.213778         5.8172 
  13   0.0000       0.229023         6.2320 
  14   0.0000       0.262109         7.1323 
  15   0.0000       0.292543         7.9605 
  16   0.0000       0.310164         8.4400 
  17   0.0000       0.326361         8.8807 
  18   0.0000       0.350026         9.5247 
  19   0.0000       0.568008        15.4563 
  20   0.0000       0.595051        16.1922 
  21   0.0000       0.725979        19.7549 
  22   0.0000       0.736749        20.0479 
  23   0.0000       0.796524        21.6745 
  24   0.0000       0.816336        22.2136 
  25   0.0000       0.895082        24.3564 
  26   0.0000       0.898880        24.4598 
  27   0.0000       0.950780        25.8720 
  28   0.0000       0.956000        26.0141 
  29   0.0000       1.066382        29.0177 
  30   0.0000       1.124203        30.5911 
  31   0.0000       1.160857        31.5885 
  32   0.0000       1.173103        31.9217 
  33   0.0000       1.176605        32.0171 
  34   0.0000       1.425091        38.7787 
  35   0.0000       1.459619        39.7183 
  36   0.0000       1.512489        41.1569 
  37   0.0000       1.711692        46.5775 
  38   0.0000       1.722307        46.8664 
  39   0.0000       1.791436        48.7474 
  40   0.0000       2.760290        75.1113 
  41   0.0000       2.786571        75.8265 
  42   0.0000       2.855501        77.7021 
  43   0.0000       2.938409        79.9582 
  44   0.0000       2.985295        81.2340 
  45   0.0000       2.998803        81.6016 
  46   0.0000       3.023833        82.2827 
  47   0.0000       3.184988        86.6679 
  48   0.0000       3.212746        87.4233 
  49   0.0000       3.309814        90.0646 
  50   0.0000       3.326069        90.5070 
  51   0.0000       3.557223        96.7970 
  52   0.0000       3.778691       102.8234 
  53   0.0000       3.795393       103.2779 
  54   0.0000       3.892209       105.9124 
  55   0.0000       3.914441       106.5174 
  56   0.0000       4.056669       110.3876 
  57   0.0000       4.088954       111.2661 
  58   0.0000       4.146608       112.8349 
  59   0.0000       4.173212       113.5589 
  60   0.0000       4.485569       122.0585 
  61   0.0000       5.036588       137.0525 
  62   0.0000       5.306753       144.4041 
  63   0.0000       5.426038       147.6500 
  64   0.0000       5.558012       151.2412 
  65   0.0000       5.954901       162.0411 
  66   0.0000       6.128033       166.7523 
  67   0.0000       7.695365       209.4015 
  68   0.0000      29.051450       790.5302 
  69   0.0000      37.059337      1008.4358 
  70   0.0000      37.165057      1011.3126 
  71   0.0000      37.220944      1012.8334 
  72   0.0000     133.481965      3632.2289 

                    ********************************
                    * MULLIKEN POPULATION ANALYSIS *
                    ********************************

--------------------------------------------
MULLIKEN ATOMIC CHARGES AND SPIN POPULATIONS
--------------------------------------------
   0 C :   -0.432893    1.110541
   1 H :    0.132278   -0.036723
   2 H :    0.155319   -0.032092
   3 H :    0.145296   -0.041725
Sum of atomic charges         :    0.0000000
Sum of atomic spin populations:    1.0000000

-----------------------------------------------------
MULLIKEN REDUCED ORBITAL CHARGES AND SPIN POPULATIONS
-----------------------------------------------------
CHARGE
  0 C s       :     3.344636  s :     3.344636
      pz      :     0.969740  p :     3.060286
      px      :     1.041422
      py      :     1.049125
      dz2     :     0.005620  d :     0.025085
      dxz     :     0.000128
      dyz     :     0.000193
      dx2y2   :     0.011197
      dxy     :     0.007948
      f0      :     0.000039  f :     0.002885
      f+1     :     0.000808
      f-1     :     0.000562
      f+2     :     0.000039
      f-2     :     0.000014
      f+3     :     0.000616
      f-3     :     0.000807
  1 H s       :     0.841708  s :     0.841708
      pz      :     0.009872  p :     0.026015
      px      :     0.006590
      py      :     0.009553
  2 H s       :     0.814872  s :     0.814872
      pz      :     0.011705  p :     0.029808
      px      :     0.010360
      py      :     0.007743
  3 H s       :     0.830351  s :     0.830351
      pz      :     0.009254  p :     0.024353
      px      :     0.008351
      py      :     0.006748

SPIN
  0 C s       :     0.068533  s :     0.068533
      pz      :     0.960636  p :     1.046295
      px      :     0.040065
      py      :     0.045594
      dz2     :    -0.004611  d :    -0.002976
      dxz     :    -0.000032
      dyz     :    -0.000043
      dx2y2   :     0.001052
      dxy     :     0.000658
      f0      :    -0.000027  f :    -0.001311
      f+1     :    -0.000668
      f-1     :    -0.000547
      f+2     :    -0.000007
      f-2     :    -0.000012
      f+3     :    -0.000016
      f-3     :    -0.000035
  1 H s       :    -0.045820  s :    -0.045820
      pz      :     0.009796  p :     0.009097
      px      :    -0.000496
      py      :    -0.000203
  2 H s       :    -0.043593  s :    -0.043593
      pz      :     0.011620  p :     0.011501
      px      :     0.000011
      py      :    -0.000130
  3 H s       :    -0.050541  s :    -0.050541
      pz      :     0.009198  p :     0.008816
      px      :    -0.000099
      py      :    -0.000282


                     *******************************
                     * LOEWDIN POPULATION ANALYSIS *
                     *******************************

-------------------------------------------
LOEWDIN ATOMIC CHARGES AND SPIN POPULATIONS
-------------------------------------------
   0 C :   -0.173005    0.919601
   1 H :    0.052139    0.028478
   2 H :    0.034819    0.035216
   3 H :    0.086046    0.016705

----------------------------------------------------
LOEWDIN REDUCED ORBITAL CHARGES AND SPIN POPULATIONS
----------------------------------------------------
CHARGE
  0 C s       :     2.902128  s :     2.902128
      pz      :     0.882235  p :     3.174007
      px      :     1.142508
      py      :     1.149264
      dz2     :     0.006835  d :     0.089305
      dxz     :     0.000406
      dyz     :     0.000507
      dx2y2   :     0.045288
      dxy     :     0.036269
      f0      :     0.000258  f :     0.007565
      f+1     :     0.002223
      f-1     :     0.001586
      f+2     :     0.000081
      f-2     :     0.000034
      f+3     :     0.001569
      f-3     :     0.001813
  1 H s       :     0.805256  s :     0.805256
      pz      :     0.040866  p :     0.142605
      px      :     0.032468
      py      :     0.069271
  2 H s       :     0.809287  s :     0.809287
      pz      :     0.046166  p :     0.155894
      px      :     0.072510
      py      :     0.037218
  3 H s       :     0.791876  s :     0.791876
      pz      :     0.033218  p :     0.122078
      px      :     0.050209
      py      :     0.038651

SPIN
  0 C s       :     0.020866  s :     0.020866
      pz      :     0.871979  p :     0.907858
      px      :     0.013969
      py      :     0.021910
      dz2     :    -0.003988  d :    -0.007788
      dxz     :    -0.000041
      dyz     :    -0.000060
      dx2y2   :    -0.002070
      dxy     :    -0.001630
      f0      :     0.000131  f :    -0.001335
      f+1     :    -0.000621
      f-1     :    -0.000506
      f+2     :    -0.000015
      f-2     :    -0.000010
      f+3     :    -0.000127
      f-3     :    -0.000189
  1 H s       :    -0.017047  s :    -0.017047
      pz      :     0.040347  p :     0.045525
      px      :     0.000799
      py      :     0.004379
  2 H s       :    -0.016673  s :    -0.016673
      pz      :     0.045664  p :     0.051889
      px      :     0.005096
      py      :     0.001129
  3 H s       :    -0.021651  s :    -0.021651
      pz      :     0.032987  p :     0.038356
      px      :     0.003749
      py      :     0.001620


                      *****************************
                      * MAYER POPULATION ANALYSIS *
                      *****************************

  NA   - Mulliken gross atomic population
  ZA   - Total nuclear charge
  QA   - Mulliken gross atomic charge
  VA   - Mayer's total valence
  BVA  - Mayer's bonded valence
  FA   - Mayer's free valence

  ATOM       NA         ZA         QA         VA         BVA        FA
  0 C      6.4329     6.0000    -0.4329     3.8699     2.9221     0.9477
  1 H      0.8677     1.0000     0.1323     0.9767     0.9746     0.0020
  2 H      0.8447     1.0000     0.1553     0.9858     0.9839     0.0019
  3 H      0.8547     1.0000     0.1453     0.9823     0.9798     0.0025

  Mayer bond orders larger than 0.100000
B(  0-C ,  1-H ) :   0.9762 B(  0-C ,  2-H ) :   0.9734 B(  0-C ,  3-H ) :   0.9725 


-------
TIMINGS
-------

Total SCF time: 0 days 0 hours 0 min 4 sec 

Total time                  ....       4.922 sec
Sum of individual times     ....       4.213 sec  ( 85.6%)

Fock matrix formation       ....       3.491 sec  ( 70.9%)
  Split-RI-J                ....       0.383 sec  ( 11.0% of F)
  Chain of spheres X        ....       0.865 sec  ( 24.8% of F)
  XC integration            ....       1.486 sec  ( 42.6% of F)
    Basis function eval.    ....       0.107 sec  (  7.2% of XC)
    Density eval.           ....       0.113 sec  (  7.6% of XC)
    XC-Functional eval.     ....       0.108 sec  (  7.2% of XC)
    XC-Potential eval.      ....       0.152 sec  ( 10.2% of XC)
Diagonalization             ....       0.042 sec  (  0.8%)
Density matrix formation    ....       0.003 sec  (  0.1%)
Population analysis         ....       0.083 sec  (  1.7%)
Initial guess               ....       0.045 sec  (  0.9%)
Orbital Transformation      ....       0.000 sec  (  0.0%)
Orbital Orthonormalization  ....       0.000 sec  (  0.0%)
DIIS solution               ....       0.066 sec  (  1.3%)
Grid generation             ....       0.483 sec  (  9.8%)

Maximum memory used throughout the entire SCF-calculation: 59.0 MB

-------------------------   --------------------
FINAL SINGLE POINT ENERGY       -39.819399749141
-------------------------   --------------------

   --->>> g-tensor requested, so NeedSOC=true

                            ***************************************
                            *     ORCA property calculations      *
                            ***************************************

                                    ---------------------
                                    Active property flags
                                    ---------------------
   (+) Dipole Moment
   (+) g-tensor
   (+) Nuclear properties (Hyperfine,Quadrupole)
   (+) Spin-Orbit Integrals are needed


------------------------------------------------------------------------------
                       ORCA ELECTRIC PROPERTIES CALCULATION
------------------------------------------------------------------------------

Dipole Moment Calculation                       ... on
Quadrupole Moment Calculation                   ... off
Polarizability Calculation                      ... off
GBWName                                         ... /home/rwth0701/scratch/cs681498/orcajob__30556555-Uzxc/17898.gbw
Electron density                                ... /home/rwth0701/scratch/cs681498/orcajob__30556555-Uzxc/17898.scfp
The origin for moment calculation is the CENTER OF MASS  = (-158.879148, -210.519211 -59.261516)

-------------
DIPOLE MOMENT
-------------
                                X             Y             Z
Electronic contribution:      0.15977       0.11658       0.00640
Nuclear contribution   :     -0.16611      -0.14457      -0.00276
                        -----------------------------------------
Total Dipole Moment    :     -0.00634      -0.02799       0.00364
                        -----------------------------------------
Magnitude (a.u.)       :      0.02893
Magnitude (Debye)      :      0.07354



--------------------
Rotational spectrum 
--------------------
 
Rotational constants in cm-1:    10.618446     7.933878     4.541289 
Rotational constants in MHz : 318333.002043 237851.677230 136144.409185 

 Dipole components along the rotational axes: 
x,y,z [a.u.] :    -0.000074    -0.028254     0.006224 
x,y,z [Debye]:    -0.000188    -0.071816     0.015820 

 


           ************************************************************
           *        Program running with 4 parallel MPI-processes     *
           *              working on a common directory               *
           ************************************************************
------------------------------------------------------------------------------
                         ORCA SPIN-ORBIT COUPLING CALCULATION
------------------------------------------------------------------------------

GBW file                                    ... /home/rwth0701/scratch/cs681498/orcajob__30556555-Uzxc/17898.gbw
Input density                               ... /home/rwth0701/scratch/cs681498/orcajob__30556555-Uzxc/17898.scfp
Output integrals                            ... /home/rwth0701/scratch/cs681498/orcajob__30556555-Uzxc/17898
Operator type                               ... Mean-field/Effective potential
   One-Electron Terms                       ... 1
   Coulomb Contribution                     ... 3
   Exchange Contribution                    ... 3
   Correlation Contribution                 ... 0
   Maximum number of centers                ... 4
SHARK 2-electron RIJ-SOMF                   ... done (  0.1 sec)
SHARK 1-electron  MaxCenter=4               ... done (  0.0 sec)
SHARK 2-electron DoJ,X=0,1 MaxCenter=1      ... done (  0.1 sec)

Maximum memory used throughout the entire SOC-calculation: 11.3 MB
Total time for SOC:  2.243


           ************************************************************
           *        Program running with 4 parallel MPI-processes     *
           *              working on a common directory               *
           ************************************************************
------------------------------------------------------------------------------
                                ORCA EPR/NMR CALCULATION
------------------------------------------------------------------------------

GBWName                      ... /home/rwth0701/scratch/cs681498/orcajob__30556555-Uzxc/17898.gbw
Electron density             ... /home/rwth0701/scratch/cs681498/orcajob__30556555-Uzxc/17898.scfp
Spin density                 ... /home/rwth0701/scratch/cs681498/orcajob__30556555-Uzxc/17898.scfr
Spin-orbit integrals         ... /home/rwth0701/scratch/cs681498/orcajob__30556555-Uzxc/17898
Treatment of gauge           ... GIAO (approximations 1/2el = 0,0)
Details of the CP(SCF) procedure:
       Solver   = POPLE   
       MaxIter  =    64   
       Tolerance=    1.000e-03
       COSX Grid=     1   
       Op-0     =   0-  4 =>   5- 72
       Op-1     =   0-  3 =>   4- 72
Multiplicity                 ... 2
g-tensor                     ... 1
NMR chemical shifts          ... 0
NMR spin-spin couplings      ... 0
NMR spectrum                 ... 0
Number of nuclei for epr/nmr ... 4
   Nucleus:   1H 
       Hyperfine : Isotope=    1 I=   0.500 P= 533.551
       Quadrupole: Isotope=    2 I=   1.000 Q=   0.003
       Spin-Orbit: Zeff=   1.000
       Nuclear Spin-Spin: Gn=   0.000
       EPRNMR Input: 
       rho(0)=N f(grad)=N a(iso)=Y a(dip)=Y a(orb)=Y sigma(nmr)=N spin-spin(nmr)=all-N,DSO-N,PSO-N,FC-N,SD-N
   Nucleus:   2H 
       Hyperfine : Isotope=    1 I=   0.500 P= 533.551
       Quadrupole: Isotope=    2 I=   1.000 Q=   0.003
       Spin-Orbit: Zeff=   1.000
       Nuclear Spin-Spin: Gn=   0.000
       EPRNMR Input: 
       rho(0)=N f(grad)=N a(iso)=Y a(dip)=Y a(orb)=Y sigma(nmr)=N spin-spin(nmr)=all-N,DSO-N,PSO-N,FC-N,SD-N
   Nucleus:   3H 
       Hyperfine : Isotope=    1 I=   0.500 P= 533.551
       Quadrupole: Isotope=    2 I=   1.000 Q=   0.003
       Spin-Orbit: Zeff=   1.000
       Nuclear Spin-Spin: Gn=   0.000
       EPRNMR Input: 
       rho(0)=N f(grad)=N a(iso)=Y a(dip)=Y a(orb)=Y sigma(nmr)=N spin-spin(nmr)=all-N,DSO-N,PSO-N,FC-N,SD-N
   Nucleus:   0C 
       Hyperfine : Isotope=   13 I=   0.500 P= 134.190
       Quadrupole: Isotope=   13 I=   0.500 Q=   0.000
       Spin-Orbit: Zeff=   3.600
       Nuclear Spin-Spin: Gn=   0.000
       EPRNMR Input: 
       rho(0)=N f(grad)=N a(iso)=Y a(dip)=Y a(orb)=Y sigma(nmr)=N spin-spin(nmr)=all-N,DSO-N,PSO-N,FC-N,SD-N
Forming RHS of the CP-SCF equations         ... 
Calculating right hand sides for GIAO treatment        ... 
  Entering RightHandSide GIAO. ScalHFX=    0.2000 NeedHFX=1
     -> 1-electron GIAO integrals will be done analytically
     -> RIJCOSX used in SCF. Same chosen for GIAO calculation.
     Making grid for GIAO integrations   ...

GRID GIAO
---------

General Integration Accuracy     IntAcc      ... 4.388
Radial Grid Type                 RadialGrid  ... OptM3 with GC (2021)
Angular Grid (max. ang.)         AngularGrid ... 4 (Lebedev-302)
Angular grid pruning method      GridPruning ... 4 (adaptive)
Weight generation scheme         WeightScheme... Becke
Basis function cutoff            BFCut       ... 1.0000e-10
Integration weight cutoff        WCut        ... 1.0000e-14
Angular grids for H and He will be reduced by one unit
Partially contracted basis set               ... off
Rotationally invariant grid construction     ... off

Total number of grid points                  ...    17046
Total number of batches                      ...      269
Average number of points per batch           ...       63
Average number of grid points per atom       ...     4262

  One-electron GIAO integrals (SHARK)     ... done
  Calculating G(B)[P]                     ... (RI-J: SHARK-ok) (COSX-ok) (add-J+K:ok) => dG/dB done
  DFT XC-terms                            ... done
  Extracting occupied and virtual blocks  ... 
  Operator  0  NO=   5 NV=  68 
  Operator  1  NO=   4 NV=  69 
  Transforming and RHS contribution       ... done
  Adding eps_i * S(B)_ai terms            ... done
  Projecting overlap derivatives          ... done
  Building G[dS/dB_ij] (COSX)             ... done
  Transforming to MO basis                ... done
  Summing G[dS/dB_ij] into RHS contribs.  ... done

  GIAO profiling information: 
    Total GIAO time               ...       0.7 sec
       GIAO 1-electron integrals  ...       0.0 sec (  0.6%)
       GIAO G(dS/dB) terms        ...       0.1 sec ( 15.7%)
       GIAO RI-J                  ...       0.1 sec ( 12.7%)
       GIAO COSX                  ...       0.1 sec ( 18.2%)
       GIAO XC-terms              ...       0.3 sec ( 35.9%)

  GIAO right hand side done


------------------------------------------------------------------------------
                           ORCA CP-SCF CALCULATION
------------------------------------------------------------------------------

Input orbitals are from        ... /home/rwth0701/scratch/cs681498/orcajob__30556555-Uzxc/17898.gbw
Input Perturbation             ... /home/rwth0701/scratch/cs681498/orcajob__30556555-Uzxc/17898.pin.tmp
Wavefunction output            ... /home/rwth0701/scratch/cs681498/orcajob__30556555-Uzxc/17898.pout.tmp
Perturbation mode              ... Imaginary perturbation
Solver                         ... POPLE
Max. number of iterations      ... 64
Convergence tolerance          ... 1.000e-03
Integral handling              ... Direct
DFT GridXC                     ... 1
COSX GridX                     ... 1
COSX IntAccX                   ... 3.067
COSX Algorithm                 ... Auto
Number of perturbations        ... 3
Number of operators            ... 2
Orbital ranges used for CP-SCF:
 Operator 0:  Orbitals   0...  4  to   5... 72
 Operator 1:  Orbitals   0...  3  to   4... 72
Variables per perturbation     ... 616
DFT calculation                         ... on
XC functional terms                     ... off
Hybrid DFT                              ... on
   Exchange mixing (SCF)                ...  0.200
   Exchange mixing (CP-SCF)             ...  0.200
   GGA exch. scaling(SCF)               ...  0.720
   GGA exch. scaling (CP-SCF)           ...  0.720
   GGA corr. scaling (SCF)              ...  0.810
   GGA corr. scaling (CP-SCF)           ...  0.810

CP-SCF GRID
-----------

General Integration Accuracy     IntAcc      ... 3.467
Radial Grid Type                 RadialGrid  ... OptM3 with GC (2021)
Angular Grid (max. ang.)         AngularGrid ... 1 (Lebedev-50)
Angular grid pruning method      GridPruning ... 4 (adaptive)
Weight generation scheme         WeightScheme... Becke
Basis function cutoff            BFCut       ... 1.0000e-10
Integration weight cutoff        WCut        ... 1.0000e-14
Angular grids for H and He will be reduced by one unit
Partially contracted basis set               ... off
Rotationally invariant grid construction     ... off

Total number of grid points                  ...     2345
Total number of batches                      ...       38
Average number of points per batch           ...       61
Average number of grid points per atom       ...      586

CP-SCF GRIDX
------------

General Integration Accuracy     IntAcc      ... 3.067
Radial Grid Type                 RadialGrid  ... OptM3 with GC (2021)
Angular Grid (max. ang.)         AngularGrid ... 1 (Lebedev-50)
Angular grid pruning method      GridPruning ... 4 (adaptive)
Weight generation scheme         WeightScheme... Becke
Basis function cutoff            BFCut       ... 1.0000e-10
Integration weight cutoff        WCut        ... 1.0000e-14
Angular grids for H and He will be reduced by one unit
Partially contracted basis set               ... on
Rotationally invariant grid construction     ... off

Total number of grid points                  ...     1073
Total number of batches                      ...       19
Average number of points per batch           ...       56
Average number of grid points per atom       ...      268

Memory available               ... 1014.6 MB
Memory needed per perturbation ...   0.4 MB
Perturbations treated per batch... 3
Number of batches              ... 1
     CP-SCF ITERATION   0:   1.3706e+01 (   0.1 sec   0/  3 done)
     CP-SCF ITERATION   1:   1.0810e-01 (   0.1 sec   0/  3 done)
     CP-SCF ITERATION   2:   4.2678e-03 (   0.1 sec   0/  3 done)
     CP-SCF ITERATION   3:   2.0507e-04 (   0.1 sec   3/  3 done)
                    *** THE CP-SCF HAS CONVERGED ***

Forming final perturbed densities           ... done
Transforming perturbed density to AO basis  ... done

Magnetic field perturbation calculated in  1.189 sec
GIAO: Diamagnetic terms      (analytic)     (SHARK) ... done
GIAO: 1el-Paramagnetic terms (analytic)     (SHARK) ... done

-------------------
ELECTRONIC G-MATRIX
-------------------

 The g-matrix: 
              2.0029111   -0.0000290    0.0000273
             -0.0000151    2.0028602    0.0000481
              0.0000383    0.0000685    2.0022552

 gel          2.0023193    2.0023193    2.0023193
 gRMC        -0.0001279   -0.0001279   -0.0001279
 gDSO(tot)    0.0000345    0.0000707    0.0000711
 gPSO(tot)    0.0000219    0.0005972    0.0006571
             ----------   ----------   ----------
 g(tot)       2.0022478    2.0028592    2.0029195 iso=  2.0026755
 Delta-g     -0.0000715    0.0005399    0.0006003 iso=  0.0003562
 Orientation: 
  X          -0.0523982    0.3298865   -0.9425653
  Y          -0.0965446    0.9377672    0.3335742
  Z           0.9939485    0.1084783   -0.0172886

Notes:  (1) The g-matrix conforms to the "BgS" spin Hamiltonian convention. 
        (2) The principal values are square roots of the eigenvalues of g*gT.
        (3) Orientations are eigenvectors of g*gT written as column vectors.
        (4) Individual contributions are projections of the full matrices onto the eigenvectors of g*gT.
        (5) Tensor is right-handed.


-----------------------------------------
ELECTRIC AND MAGNETIC HYPERFINE STRUCTURE
-----------------------------------------

 -----------------------------------------------------------
 Nucleus   1H : A:ISTP=    1 I=  0.5 P=533.5514 MHz/au**3
                Q:ISTP=    2 I=  1.0 Q=  0.0029 barn     
 -----------------------------------------------------------
 Solving for nuclear perturbation:
Forming RHS of the CP-SCF equations         ... 
Calc. nucleus orbit integrals (SHARK)       ... done

------------------------------------------------------------------------------
                           ORCA CP-SCF CALCULATION
------------------------------------------------------------------------------

Input orbitals are from        ... /home/rwth0701/scratch/cs681498/orcajob__30556555-Uzxc/17898.gbw
Input Perturbation             ... /home/rwth0701/scratch/cs681498/orcajob__30556555-Uzxc/17898.pin.tmp
Wavefunction output            ... /home/rwth0701/scratch/cs681498/orcajob__30556555-Uzxc/17898.pout.tmp
Perturbation mode              ... Imaginary perturbation
Solver                         ... POPLE
Max. number of iterations      ... 64
Convergence tolerance          ... 1.000e-03
Integral handling              ... Direct
DFT GridXC                     ... 1
COSX GridX                     ... 1
COSX IntAccX                   ... 3.067
COSX Algorithm                 ... Auto
Number of perturbations        ... 3
Number of operators            ... 2
Orbital ranges used for CP-SCF:
 Operator 0:  Orbitals   0...  4  to   5... 72
 Operator 1:  Orbitals   0...  3  to   4... 72
Variables per perturbation     ... 616
DFT calculation                         ... on
XC functional terms                     ... off
Hybrid DFT                              ... on
   Exchange mixing (SCF)                ...  0.200
   Exchange mixing (CP-SCF)             ...  0.200
   GGA exch. scaling(SCF)               ...  0.720
   GGA exch. scaling (CP-SCF)           ...  0.720
   GGA corr. scaling (SCF)              ...  0.810
   GGA corr. scaling (CP-SCF)           ...  0.810

CP-SCF GRID
-----------

General Integration Accuracy     IntAcc      ... 3.467
Radial Grid Type                 RadialGrid  ... OptM3 with GC (2021)
Angular Grid (max. ang.)         AngularGrid ... 1 (Lebedev-50)
Angular grid pruning method      GridPruning ... 4 (adaptive)
Weight generation scheme         WeightScheme... Becke
Basis function cutoff            BFCut       ... 1.0000e-10
Integration weight cutoff        WCut        ... 1.0000e-14
Angular grids for H and He will be reduced by one unit
Partially contracted basis set               ... off
Rotationally invariant grid construction     ... off

Total number of grid points                  ...     2345
Total number of batches                      ...       38
Average number of points per batch           ...       61
Average number of grid points per atom       ...      586

CP-SCF GRIDX
------------

General Integration Accuracy     IntAcc      ... 3.067
Radial Grid Type                 RadialGrid  ... OptM3 with GC (2021)
Angular Grid (max. ang.)         AngularGrid ... 1 (Lebedev-50)
Angular grid pruning method      GridPruning ... 4 (adaptive)
Weight generation scheme         WeightScheme... Becke
Basis function cutoff            BFCut       ... 1.0000e-10
Integration weight cutoff        WCut        ... 1.0000e-14
Angular grids for H and He will be reduced by one unit
Partially contracted basis set               ... on
Rotationally invariant grid construction     ... off

Total number of grid points                  ...     1073
Total number of batches                      ...       19
Average number of points per batch           ...       56
Average number of grid points per atom       ...      268

Memory available               ... 968.0 MB
Memory needed per perturbation ...   0.4 MB
Perturbations treated per batch... 3
Number of batches              ... 1
     CP-SCF ITERATION   0:   6.0983e-02 (   0.1 sec   0/  3 done)
     CP-SCF ITERATION   1:   2.1436e-03 (   0.1 sec   1/  3 done)
     CP-SCF ITERATION   2:   1.6858e-04 (   0.1 sec   3/  3 done)
                    *** THE CP-SCF HAS CONVERGED ***

Forming final perturbed densities           ... done
Transforming perturbed density to AO basis  ... done

 Raw HFC matrix (all values in MHz): 
 -----------------------------------
               -96.1855              19.4156               0.0227
                19.4162             -30.0576               3.2786
                 0.0227               3.2786             -62.2784

 A(FC)         -62.8546             -62.8546             -62.8546
 A(SD)          38.3307               0.3287             -38.6594
 A(ORB+DIA)      0.0117              -0.0006               0.0312    A(PC) =   0.0141
 A(ORB)          0.0070               0.0005               0.0299    A(PC) =   0.0124
 A(DIA)          0.0047              -0.0011               0.0014    A(PC) =   0.0017
             ----------           ----------           ----------
 A(Tot)        -24.5122             -62.5265            -101.4827    A(iso)=  -62.8405
 Orientation: 
  X           0.2605759           -0.0426473            0.9645110
  Y           0.9618221           -0.0750982           -0.2631701
  Z           0.0836566            0.9962638            0.0214503

Notes:  (1) The A matrix conforms to the "SAI" spin Hamiltonian convention.
        (2) Tensor is right-handed.

 -----------------------------------------------------------
 Nucleus   2H : A:ISTP=    1 I=  0.5 P=533.5514 MHz/au**3
                Q:ISTP=    2 I=  1.0 Q=  0.0029 barn     
 -----------------------------------------------------------
 Solving for nuclear perturbation:
Forming RHS of the CP-SCF equations         ... 
Calc. nucleus orbit integrals (SHARK)       ... done

------------------------------------------------------------------------------
                           ORCA CP-SCF CALCULATION
------------------------------------------------------------------------------

Input orbitals are from        ... /home/rwth0701/scratch/cs681498/orcajob__30556555-Uzxc/17898.gbw
Input Perturbation             ... /home/rwth0701/scratch/cs681498/orcajob__30556555-Uzxc/17898.pin.tmp
Wavefunction output            ... /home/rwth0701/scratch/cs681498/orcajob__30556555-Uzxc/17898.pout.tmp
Perturbation mode              ... Imaginary perturbation
Solver                         ... POPLE
Max. number of iterations      ... 64
Convergence tolerance          ... 1.000e-03
Integral handling              ... Direct
DFT GridXC                     ... 1
COSX GridX                     ... 1
COSX IntAccX                   ... 3.067
COSX Algorithm                 ... Auto
Number of perturbations        ... 3
Number of operators            ... 2
Orbital ranges used for CP-SCF:
 Operator 0:  Orbitals   0...  4  to   5... 72
 Operator 1:  Orbitals   0...  3  to   4... 72
Variables per perturbation     ... 616
DFT calculation                         ... on
XC functional terms                     ... off
Hybrid DFT                              ... on
   Exchange mixing (SCF)                ...  0.200
   Exchange mixing (CP-SCF)             ...  0.200
   GGA exch. scaling(SCF)               ...  0.720
   GGA exch. scaling (CP-SCF)           ...  0.720
   GGA corr. scaling (SCF)              ...  0.810
   GGA corr. scaling (CP-SCF)           ...  0.810

CP-SCF GRID
-----------

General Integration Accuracy     IntAcc      ... 3.467
Radial Grid Type                 RadialGrid  ... OptM3 with GC (2021)
Angular Grid (max. ang.)         AngularGrid ... 1 (Lebedev-50)
Angular grid pruning method      GridPruning ... 4 (adaptive)
Weight generation scheme         WeightScheme... Becke
Basis function cutoff            BFCut       ... 1.0000e-10
Integration weight cutoff        WCut        ... 1.0000e-14
Angular grids for H and He will be reduced by one unit
Partially contracted basis set               ... off
Rotationally invariant grid construction     ... off

Total number of grid points                  ...     2345
Total number of batches                      ...       38
Average number of points per batch           ...       61
Average number of grid points per atom       ...      586

CP-SCF GRIDX
------------

General Integration Accuracy     IntAcc      ... 3.067
Radial Grid Type                 RadialGrid  ... OptM3 with GC (2021)
Angular Grid (max. ang.)         AngularGrid ... 1 (Lebedev-50)
Angular grid pruning method      GridPruning ... 4 (adaptive)
Weight generation scheme         WeightScheme... Becke
Basis function cutoff            BFCut       ... 1.0000e-10
Integration weight cutoff        WCut        ... 1.0000e-14
Angular grids for H and He will be reduced by one unit
Partially contracted basis set               ... on
Rotationally invariant grid construction     ... off

Total number of grid points                  ...     1073
Total number of batches                      ...       19
Average number of points per batch           ...       56
Average number of grid points per atom       ...      268

Memory available               ... 967.8 MB
Memory needed per perturbation ...   0.4 MB
Perturbations treated per batch... 3
Number of batches              ... 1
     CP-SCF ITERATION   0:   7.9531e-02 (   0.1 sec   0/  3 done)
     CP-SCF ITERATION   1:   3.0341e-03 (   0.1 sec   1/  3 done)
     CP-SCF ITERATION   2:   2.2338e-04 (   0.1 sec   3/  3 done)
                    *** THE CP-SCF HAS CONVERGED ***

Forming final perturbed densities           ... done
Transforming perturbed density to AO basis  ... done

 Raw HFC matrix (all values in MHz): 
 -----------------------------------
               -31.2949              16.1057               3.1438
                16.1044            -105.6650              -2.6401
                 3.1438              -2.6400             -65.0439

 A(FC)         -67.3484             -67.3484             -67.3484
 A(SD)          39.5548               2.3664             -41.9212
 A(ORB+DIA)      0.0105              -0.0005               0.0313    A(PC) =   0.0138
 A(ORB)          0.0053               0.0007               0.0298    A(PC) =   0.0119
 A(DIA)          0.0053              -0.0012               0.0015    A(PC) =   0.0019
             ----------           ----------           ----------
 A(Tot)        -27.7830             -64.9825            -109.2382    A(iso)=  -67.3346
 Orientation: 
  X           0.9774493            0.0521197           -0.2046372
  Y           0.1998160            0.0852044            0.9761218
  Z           0.0683112           -0.9949994            0.0728686

Notes:  (1) The A matrix conforms to the "SAI" spin Hamiltonian convention.
        (2) Tensor is right-handed.

 -----------------------------------------------------------
 Nucleus   3H : A:ISTP=    1 I=  0.5 P=533.5514 MHz/au**3
                Q:ISTP=    2 I=  1.0 Q=  0.0029 barn     
 -----------------------------------------------------------
 Solving for nuclear perturbation:
Forming RHS of the CP-SCF equations         ... 
Calc. nucleus orbit integrals (SHARK)       ... done

------------------------------------------------------------------------------
                           ORCA CP-SCF CALCULATION
------------------------------------------------------------------------------

Input orbitals are from        ... /home/rwth0701/scratch/cs681498/orcajob__30556555-Uzxc/17898.gbw
Input Perturbation             ... /home/rwth0701/scratch/cs681498/orcajob__30556555-Uzxc/17898.pin.tmp
Wavefunction output            ... /home/rwth0701/scratch/cs681498/orcajob__30556555-Uzxc/17898.pout.tmp
Perturbation mode              ... Imaginary perturbation
Solver                         ... POPLE
Max. number of iterations      ... 64
Convergence tolerance          ... 1.000e-03
Integral handling              ... Direct
DFT GridXC                     ... 1
COSX GridX                     ... 1
COSX IntAccX                   ... 3.067
COSX Algorithm                 ... Auto
Number of perturbations        ... 3
Number of operators            ... 2
Orbital ranges used for CP-SCF:
 Operator 0:  Orbitals   0...  4  to   5... 72
 Operator 1:  Orbitals   0...  3  to   4... 72
Variables per perturbation     ... 616
DFT calculation                         ... on
XC functional terms                     ... off
Hybrid DFT                              ... on
   Exchange mixing (SCF)                ...  0.200
   Exchange mixing (CP-SCF)             ...  0.200
   GGA exch. scaling(SCF)               ...  0.720
   GGA exch. scaling (CP-SCF)           ...  0.720
   GGA corr. scaling (SCF)              ...  0.810
   GGA corr. scaling (CP-SCF)           ...  0.810

CP-SCF GRID
-----------

General Integration Accuracy     IntAcc      ... 3.467
Radial Grid Type                 RadialGrid  ... OptM3 with GC (2021)
Angular Grid (max. ang.)         AngularGrid ... 1 (Lebedev-50)
Angular grid pruning method      GridPruning ... 4 (adaptive)
Weight generation scheme         WeightScheme... Becke
Basis function cutoff            BFCut       ... 1.0000e-10
Integration weight cutoff        WCut        ... 1.0000e-14
Angular grids for H and He will be reduced by one unit
Partially contracted basis set               ... off
Rotationally invariant grid construction     ... off

Total number of grid points                  ...     2345
Total number of batches                      ...       38
Average number of points per batch           ...       61
Average number of grid points per atom       ...      586

CP-SCF GRIDX
------------

General Integration Accuracy     IntAcc      ... 3.067
Radial Grid Type                 RadialGrid  ... OptM3 with GC (2021)
Angular Grid (max. ang.)         AngularGrid ... 1 (Lebedev-50)
Angular grid pruning method      GridPruning ... 4 (adaptive)
Weight generation scheme         WeightScheme... Becke
Basis function cutoff            BFCut       ... 1.0000e-10
Integration weight cutoff        WCut        ... 1.0000e-14
Angular grids for H and He will be reduced by one unit
Partially contracted basis set               ... on
Rotationally invariant grid construction     ... off

Total number of grid points                  ...     1073
Total number of batches                      ...       19
Average number of points per batch           ...       56
Average number of grid points per atom       ...      268

Memory available               ... 967.7 MB
Memory needed per perturbation ...   0.4 MB
Perturbations treated per batch... 3
Number of batches              ... 1
     CP-SCF ITERATION   0:   5.8138e-02 (   0.1 sec   0/  3 done)
     CP-SCF ITERATION   1:   2.3486e-03 (   0.1 sec   1/  3 done)
     CP-SCF ITERATION   2:   2.2911e-04 (   0.1 sec   3/  3 done)
                    *** THE CP-SCF HAS CONVERGED ***

Forming final perturbed densities           ... done
Transforming perturbed density to AO basis  ... done

 Raw HFC matrix (all values in MHz): 
 -----------------------------------
               -57.1551             -32.3247              -2.1991
               -32.3262             -83.5599              -2.1038
                -2.1993              -2.1037             -74.2706

 A(FC)         -71.6751             -71.6751             -71.6751
 A(SD)          36.2328              -2.3233             -33.9096
 A(ORB+DIA)      0.0134              -0.0007               0.0271    A(PC) =   0.0133
 A(ORB)          0.0093               0.0003               0.0261    A(PC) =   0.0119
 A(DIA)          0.0040              -0.0010               0.0011    A(PC) =   0.0014
             ----------           ----------           ----------
 A(Tot)        -35.4289             -73.9991            -105.5576    A(iso)=  -71.6619
 Orientation: 
  X           0.8303752            0.0387758            0.5558539
  Y          -0.5569499            0.0879235            0.8258791
  Z          -0.0168485           -0.9953722            0.0946057

Notes:  (1) The A matrix conforms to the "SAI" spin Hamiltonian convention.
        (2) Tensor is right-handed.

 -----------------------------------------------------------
 Nucleus   0C : A:ISTP=   13 I=  0.5 P=134.1903 MHz/au**3
                Q:ISTP=   13 I=  0.5 Q=  0.0000 barn     
 -----------------------------------------------------------
 Solving for nuclear perturbation:
Forming RHS of the CP-SCF equations         ... 
Calc. nucleus orbit integrals (SHARK)       ... done

------------------------------------------------------------------------------
                           ORCA CP-SCF CALCULATION
------------------------------------------------------------------------------

Input orbitals are from        ... /home/rwth0701/scratch/cs681498/orcajob__30556555-Uzxc/17898.gbw
Input Perturbation             ... /home/rwth0701/scratch/cs681498/orcajob__30556555-Uzxc/17898.pin.tmp
Wavefunction output            ... /home/rwth0701/scratch/cs681498/orcajob__30556555-Uzxc/17898.pout.tmp
Perturbation mode              ... Imaginary perturbation
Solver                         ... POPLE
Max. number of iterations      ... 64
Convergence tolerance          ... 1.000e-03
Integral handling              ... Direct
DFT GridXC                     ... 1
COSX GridX                     ... 1
COSX IntAccX                   ... 3.067
COSX Algorithm                 ... Auto
Number of perturbations        ... 3
Number of operators            ... 2
Orbital ranges used for CP-SCF:
 Operator 0:  Orbitals   0...  4  to   5... 72
 Operator 1:  Orbitals   0...  3  to   4... 72
Variables per perturbation     ... 616
DFT calculation                         ... on
XC functional terms                     ... off
Hybrid DFT                              ... on
   Exchange mixing (SCF)                ...  0.200
   Exchange mixing (CP-SCF)             ...  0.200
   GGA exch. scaling(SCF)               ...  0.720
   GGA exch. scaling (CP-SCF)           ...  0.720
   GGA corr. scaling (SCF)              ...  0.810
   GGA corr. scaling (CP-SCF)           ...  0.810

CP-SCF GRID
-----------

General Integration Accuracy     IntAcc      ... 3.467
Radial Grid Type                 RadialGrid  ... OptM3 with GC (2021)
Angular Grid (max. ang.)         AngularGrid ... 1 (Lebedev-50)
Angular grid pruning method      GridPruning ... 4 (adaptive)
Weight generation scheme         WeightScheme... Becke
Basis function cutoff            BFCut       ... 1.0000e-10
Integration weight cutoff        WCut        ... 1.0000e-14
Angular grids for H and He will be reduced by one unit
Partially contracted basis set               ... off
Rotationally invariant grid construction     ... off

Total number of grid points                  ...     2345
Total number of batches                      ...       38
Average number of points per batch           ...       61
Average number of grid points per atom       ...      586

CP-SCF GRIDX
------------

General Integration Accuracy     IntAcc      ... 3.067
Radial Grid Type                 RadialGrid  ... OptM3 with GC (2021)
Angular Grid (max. ang.)         AngularGrid ... 1 (Lebedev-50)
Angular grid pruning method      GridPruning ... 4 (adaptive)
Weight generation scheme         WeightScheme... Becke
Basis function cutoff            BFCut       ... 1.0000e-10
Integration weight cutoff        WCut        ... 1.0000e-14
Angular grids for H and He will be reduced by one unit
Partially contracted basis set               ... on
Rotationally invariant grid construction     ... off

Total number of grid points                  ...     1073
Total number of batches                      ...       19
Average number of points per batch           ...       56
Average number of grid points per atom       ...      268

Memory available               ... 967.6 MB
Memory needed per perturbation ...   0.4 MB
Perturbations treated per batch... 3
Number of batches              ... 1
     CP-SCF ITERATION   0:   1.2294e+00 (   0.1 sec   0/  3 done)
     CP-SCF ITERATION   1:   4.7361e-02 (   0.1 sec   0/  3 done)
     CP-SCF ITERATION   2:   3.5481e-03 (   0.1 sec   0/  3 done)
     CP-SCF ITERATION   3:   1.7486e-04 (   0.1 sec   3/  3 done)
                    *** THE CP-SCF HAS CONVERGED ***

Forming final perturbed densities           ... done
Transforming perturbed density to AO basis  ... done

 Raw HFC matrix (all values in MHz): 
 -----------------------------------
                 9.0032               0.4962             -10.8186
                 0.4961              11.5538             -20.0940
               -10.8186             -20.0940             249.2195

 A(FC)          90.0466              90.0466              90.0466
 A(SD)         -81.4644             -79.8921             161.3565
 A(ORB+DIA)     -0.1773              -0.1726              -0.0134    A(PC) =  -0.1211
 A(ORB)         -0.1777              -0.1729              -0.0133    A(PC) =  -0.1213
 A(DIA)          0.0004               0.0004              -0.0001    A(PC) =   0.0002
             ----------           ----------           ----------
 A(Tot)          8.4049               9.9820             251.3897    A(iso)=   89.9255
 Orientation: 
  X           0.9618638           -0.2698674           -0.0446041
  Y           0.2656016            0.9604602           -0.0834985
  Z           0.0653740            0.0684672            0.9955092

Notes:  (1) The A matrix conforms to the "SAI" spin Hamiltonian convention.
        (2) Tensor is right-handed.


--------------------------------------------------------------------------------
----------------------------------------------------------------------------
                           ORCA EULER ANGLE PROGRAM
----------------------------------------------------------------------------

Only g-tensor available        -->  using g-tensor as reference tensor

Reference tensor               ...  g

g-tensor ordering              ...  |g_min> --> |gx>
                                    |g_mid> --> |gy>
                                    |g_max> --> |gz>

A- and EFG-tensor ordering     ...  the axes |Ax>, |Qx>, |Ay>, etc. are assigned
                                    such that the Euler rotation is minimal. You
                                    can find the respective eigenvalues as Ax,
                                    EFGx, Ay, etc. in the tables below.
                                    The relation of |Ax>, |Ay>,  etc. to Amin, Amid, etc.
                                    (as printed in the ORCA EPR/NMR CALCULATION Output)
                                    is obtained in the detailed printout.

Euler rotation around          ...  z - y - z
   First rotation              -->  by alpha around z
   Second rotation             -->  by beta around y'
   Third rotation              -->  by gamma around z''
   Positive / Negative angle   -->  clockwise / counterclockwise rotation

Plot EFG-tensors                    (-)
Plot HFC-tensors                    (-)
Detailed Printout                   (-)

-------------------------------------------------------------------------
          Euler rotation of hyperfine tensor to g-tensor
-------------------------------------------------------------------------

-------------------------------------------------------------------
 Atom  |   Alpha    Beta    Gamma   |   Ax       Ay       Az 
       |          [degrees]         |           [MHz]         
-------------------------------------------------------------------
  1H       91.6      4.2    -93.0     -62.53   -24.51  -101.48
  2H       89.6     31.1    -90.3     -64.98  -109.24   -27.78
  3H      -92.3     14.5     91.5     -74.00  -105.56   -35.43
  0C       90.3     35.0    -91.1     251.39     9.98     8.40
-------------------------------------------------------------------


Maximum memory used throughout the entire EPRNMR-calculation: 67.6 MB

Timings for individual modules:

Sum of individual times         ...       17.419 sec (=   0.290 min)
GTO integral calculation        ...        2.586 sec (=   0.043 min)  14.8 %
Spin-Orbit-Coupling Matrices    ...        2.232 sec (=   0.037 min)  12.8 %
SCF iterations                  ...        6.908 sec (=   0.115 min)  39.7 %
EPR/NMR calculation             ...        5.693 sec (=   0.095 min)  32.7 %
                             ****ORCA TERMINATED NORMALLY****
TOTAL RUN TIME: 0 days 0 hours 0 minutes 19 seconds 894 msec
