Job execution start: Mon Oct 24 22:42:55 CEST 2022
Shared library path: /home/cs681498/orca:/opt/MPI/openmpi-4.1.1/linux/gcc_4.8.5/lib:/opt/MPI/openmpi-4.1.1/linux/gcc_4.8.5/lib/lib32
Slurm Job ID is: 30556517
Slurm Job name is: 16348
ncm0469

                                 *****************
                                 * O   R   C   A *
                                 *****************

                                            #,                                       
                                            ###                                      
                                            ####                                     
                                            #####                                    
                                            ######                                   
                                           ########,                                 
                                     ,,################,,,,,                         
                               ,,#################################,,                 
                          ,,##########################################,,             
                       ,#########################################, ''#####,          
                    ,#############################################,,   '####,        
                  ,##################################################,,,,####,       
                ,###########''''           ''''###############################       
              ,#####''   ,,,,##########,,,,          '''####'''          '####       
            ,##' ,,,,###########################,,,                        '##       
           ' ,,###''''                  '''############,,,                           
         ,,##''                                '''############,,,,        ,,,,,,###''
      ,#''                                            '''#######################'''  
     '                                                          ''''####''''         
             ,#######,   #######,   ,#######,      ##                                
            ,#'     '#,  ##    ##  ,#'     '#,    #''#        ######   ,####,        
            ##       ##  ##   ,#'  ##            #'  '#       #        #'  '#        
            ##       ##  #######   ##           ,######,      #####,   #    #        
            '#,     ,#'  ##    ##  '#,     ,#' ,#      #,         ##   #,  ,#        
             '#######'   ##     ##  '#######'  #'      '#     #####' # '####'        



                  #######################################################
                  #                        -***-                        #
                  #          Department of theory and spectroscopy      #
                  #    Directorship and core code : Frank Neese         #
                  #        Max Planck Institute fuer Kohlenforschung    #
                  #                Kaiser Wilhelm Platz 1               #
                  #                 D-45470 Muelheim/Ruhr               #
                  #                      Germany                        #
                  #                                                     #
                  #                  All rights reserved                #
                  #                        -***-                        #
                  #######################################################


                         Program Version 5.0.3 -  RELEASE  -


 With contributions from (in alphabetic order):
   Daniel Aravena         : Magnetic Suceptibility
   Michael Atanasov       : Ab Initio Ligand Field Theory (pilot matlab implementation)
   Alexander A. Auer      : GIAO ZORA, VPT2 properties, NMR spectrum
   Ute Becker             : Parallelization
   Giovanni Bistoni       : ED, misc. LED, open-shell LED, HFLD
   Martin Brehm           : Molecular dynamics
   Dmytro Bykov           : SCF Hessian
   Vijay G. Chilkuri      : MRCI spin determinant printing, contributions to CSF-ICE
   Dipayan Datta          : RHF DLPNO-CCSD density
   Achintya Kumar Dutta   : EOM-CC, STEOM-CC
   Dmitry Ganyushin       : Spin-Orbit,Spin-Spin,Magnetic field MRCI
   Miquel Garcia          : C-PCM and meta-GGA Hessian, CC/C-PCM, Gaussian charge scheme
   Yang Guo               : DLPNO-NEVPT2, F12-NEVPT2, CIM, IAO-localization
   Andreas Hansen         : Spin unrestricted coupled pair/coupled cluster methods
   Benjamin Helmich-Paris : MC-RPA, TRAH-SCF, COSX integrals
   Lee Huntington         : MR-EOM, pCC
   Robert Izsak           : Overlap fitted RIJCOSX, COSX-SCS-MP3, EOM
   Marcus Kettner         : VPT2
   Christian Kollmar      : KDIIS, OOCD, Brueckner-CCSD(T), CCSD density, CASPT2, CASPT2-K
   Simone Kossmann        : Meta GGA functionals, TD-DFT gradient, OOMP2, MP2 Hessian
   Martin Krupicka        : Initial AUTO-CI
   Lucas Lang             : DCDCAS
   Marvin Lechner         : AUTO-CI (C++ implementation), FIC-MRCC
   Dagmar Lenk            : GEPOL surface, SMD
   Dimitrios Liakos       : Extrapolation schemes; Compound Job, initial MDCI parallelization
   Dimitrios Manganas     : Further ROCIS development; embedding schemes
   Dimitrios Pantazis     : SARC Basis sets
   Anastasios Papadopoulos: AUTO-CI, single reference methods and gradients
   Taras Petrenko         : DFT Hessian,TD-DFT gradient, ASA, ECA, R-Raman, ABS, FL, XAS/XES, NRVS
   Peter Pinski           : DLPNO-MP2, DLPNO-MP2 Gradient
   Christoph Reimann      : Effective Core Potentials
   Marius Retegan         : Local ZFS, SOC
   Christoph Riplinger    : Optimizer, TS searches, QM/MM, DLPNO-CCSD(T), (RO)-DLPNO pert. Triples
   Tobias Risthaus        : Range-separated hybrids, TD-DFT gradient, RPA, STAB
   Michael Roemelt        : Original ROCIS implementation
   Masaaki Saitow         : Open-shell DLPNO-CCSD energy and density
   Barbara Sandhoefer     : DKH picture change effects
   Avijit Sen             : IP-ROCIS
   Kantharuban Sivalingam : CASSCF convergence, NEVPT2, FIC-MRCI
   Bernardo de Souza      : ESD, SOC TD-DFT
   Georgi Stoychev        : AutoAux, RI-MP2 NMR, DLPNO-MP2 response
   Willem Van den Heuvel  : Paramagnetic NMR
   Boris Wezisla          : Elementary symmetry handling
   Frank Wennmohs         : Technical directorship


 We gratefully acknowledge several colleagues who have allowed us to
 interface, adapt or use parts of their codes:
   Stefan Grimme, W. Hujo, H. Kruse, P. Pracht,  : VdW corrections, initial TS optimization,
                  C. Bannwarth, S. Ehlert          DFT functionals, gCP, sTDA/sTD-DF
   Ed Valeev, F. Pavosevic, A. Kumar             : LibInt (2-el integral package), F12 methods
   Garnet Chan, S. Sharma, J. Yang, R. Olivares  : DMRG
   Ulf Ekstrom                                   : XCFun DFT Library
   Mihaly Kallay                                 : mrcc  (arbitrary order and MRCC methods)
   Jiri Pittner, Ondrej Demel                    : Mk-CCSD
   Frank Weinhold                                : gennbo (NPA and NBO analysis)
   Christopher J. Cramer and Donald G. Truhlar   : smd solvation model
   Lars Goerigk                                  : TD-DFT with DH, B97 family of functionals
   V. Asgeirsson, H. Jonsson                     : NEB implementation
   FAccTs GmbH                                   : IRC, NEB, NEB-TS, DLPNO-Multilevel, CI-OPT
                                                   MM, QMMM, 2- and 3-layer-ONIOM, Crystal-QMMM,
                                                   LR-CPCM, SF, NACMEs, symmetry and pop. for TD-DFT,
                                                   nearIR, NL-DFT gradient (VV10), updates on ESD,
                                                   ML-optimized integration grids
   S Lehtola, MJT Oliveira, MAL Marques          : LibXC Library
   Liviu Ungur et al                             : ANISO software


 Your calculation uses the libint2 library for the computation of 2-el integrals
 For citations please refer to: http://libint.valeyev.net

 Your ORCA version has been built with support for libXC version: 5.1.0
 For citations please refer to: https://tddft.org/programs/libxc/

 This ORCA versions uses:
   CBLAS   interface :  Fast vector & matrix operations
   LAPACKE interface :  Fast linear algebra routines
   SCALAPACK package :  Parallel linear algebra routines
   Shared memory     :  Shared parallel matrices
   BLAS/LAPACK       :  OpenBLAS 0.3.15  USE64BITINT DYNAMIC_ARCH NO_AFFINITY SkylakeX SINGLE_THREADED
        Core in use  :  SkylakeX
   Copyright (c) 2011-2014, The OpenBLAS Project


================================================================================

----- Orbital basis set information -----
Your calculation utilizes the basis: EPR-III
   V. Barone, in Recent Advances in Density Functional Methods, Part 1 (ed. D. P. Chong), World Scientific, Singapore, 1995, p. 287.
   N. Rega, M. Cossi and V. Barone, J. Chem. Phys. 105, 11060 (1996).

----- AuxJ basis set information -----
Your calculation utilizes the AutoAux generation procedure.
  G. L. Stoychev, A. A. Auer, F. Neese, J. Chem. Theory Comput. 13, 554 (2017)

----- AuxC basis set information -----
Your calculation utilizes the AutoAux generation procedure.
  G. L. Stoychev, A. A. Auer, F. Neese, J. Chem. Theory Comput. 13, 554 (2017)

----- AuxJK basis set information -----
Your calculation utilizes the AutoAux generation procedure.
  G. L. Stoychev, A. A. Auer, F. Neese, J. Chem. Theory Comput. 13, 554 (2017)

================================================================================
                                        WARNINGS
                       Please study these warnings very carefully!
================================================================================


WARNING: your system is open-shell and RHF/RKS was chosen
  ===> : WILL SWITCH to UHF/UKS


INFO   : the flag for use of the SHARK integral package has been found!

================================================================================
                                       INPUT FILE
================================================================================
NAME = /home/rwth0701/scratch/cs681498/orcajob__30556517-DeV8/16348.inp
|  1> !B3LYP EPR-III Autoaux
|  2> !PAL4
|  3> 
|  4> * xyz 0 2
|  5>  C    -74.9366837451   -100.1755254109    -29.1472947836
|  6>  H    -75.9862657249   -100.0340441179    -29.1648815770
|  7>  H    -74.5365590406   -101.2259546585    -29.2479677187
|  8>  H    -74.1960286801    -99.4517282260    -29.0772659549
|  9> *
| 10> 
| 11> %EPRNMR
| 12>         GTENSOR   TRUE
| 13>         NUCLEI    = ALL H {AISO, ADIP, AORB}
| 14>         NUCLEI    = ALL C {AISO, ADIP, AORB}
| 15> END
| 16> 
| 17> 
| 18>                          ****END OF INPUT****
================================================================================

                       ****************************
                       * Single Point Calculation *
                       ****************************

---------------------------------
CARTESIAN COORDINATES (ANGSTROEM)
---------------------------------
  C    -74.936684  -100.175525  -29.147295
  H    -75.986266  -100.034044  -29.164882
  H    -74.536559  -101.225955  -29.247968
  H    -74.196029  -99.451728  -29.077266

----------------------------
CARTESIAN COORDINATES (A.U.)
----------------------------
  NO LB      ZA    FRAG     MASS         X           Y           Z
   0 C     6.0000    0    12.011  -141.609810  -189.304308  -55.080405
   1 H     1.0000    0     1.008  -143.593232  -189.036947  -55.113639
   2 H     1.0000    0     1.008  -140.853684  -191.289332  -55.270649
   3 H     1.0000    0     1.008  -140.210174  -187.936530  -54.948069

--------------------------------
INTERNAL COORDINATES (ANGSTROEM)
--------------------------------
 C      0   0   0     0.000000000000     0.00000000     0.00000000
 H      1   0   0     1.059220743704     0.00000000     0.00000000
 H      1   2   0     1.128555015596   118.30487109     0.00000000
 H      1   2   3     1.037957767459   127.95580622   177.83352935

---------------------------
INTERNAL COORDINATES (A.U.)
---------------------------
 C      0   0   0     0.000000000000     0.00000000     0.00000000
 H      1   0   0     2.001637120968     0.00000000     0.00000000
 H      1   2   0     2.132659906539   118.30487109     0.00000000
 H      1   2   3     1.961455919074   127.95580622   177.83352935

---------------------
BASIS SET INFORMATION
---------------------
There are 2 groups of distinct atoms

 Group   1 Type C   : 12s8p2d1f contracted to 8s5p2d1f pattern {51111111/41111/11/1}
 Group   2 Type H   : 7s2p contracted to 5s2p pattern {31111/11}

Atom   0C    basis set group =>   1
Atom   1H    basis set group =>   2
Atom   2H    basis set group =>   2
Atom   3H    basis set group =>   2
---------------------------------
AUXILIARY/J BASIS SET INFORMATION
---------------------------------
There are 2 groups of distinct atoms

 Group   1 Type C   : 20s17p16d8f3g contracted to 20s17p16d8f3g pattern {11111111111111111111/11111111111111111/1111111111111111/11111111/111}
 Group   2 Type H   : 17s7p3d contracted to 17s7p3d pattern {11111111111111111/1111111/111}

Atom   0C    basis set group =>   1
Atom   1H    basis set group =>   2
Atom   2H    basis set group =>   2
Atom   3H    basis set group =>   2
---------------------------------
AUXILIARY/C BASIS SET INFORMATION
---------------------------------
There are 2 groups of distinct atoms

 Group   1 Type C   : 20s17p16d8f3g contracted to 20s17p16d8f3g pattern {11111111111111111111/11111111111111111/1111111111111111/11111111/111}
 Group   2 Type H   : 17s7p3d contracted to 17s7p3d pattern {11111111111111111/1111111/111}

Atom   0C    basis set group =>   1
Atom   1H    basis set group =>   2
Atom   2H    basis set group =>   2
Atom   3H    basis set group =>   2
----------------------------------
AUXILIARY/JK BASIS SET INFORMATION
----------------------------------
There are 2 groups of distinct atoms

 Group   1 Type C   : 20s17p16d8f3g contracted to 20s17p16d8f3g pattern {11111111111111111111/11111111111111111/1111111111111111/11111111/111}
 Group   2 Type H   : 17s7p3d contracted to 17s7p3d pattern {11111111111111111/1111111/111}

Atom   0C    basis set group =>   1
Atom   1H    basis set group =>   2
Atom   2H    basis set group =>   2
Atom   3H    basis set group =>   2


           ************************************************************
           *        Program running with 4 parallel MPI-processes     *
           *              working on a common directory               *
           ************************************************************
------------------------------------------------------------------------------
                           ORCA GTO INTEGRAL CALCULATION
                           -- RI-GTO INTEGRALS CHOSEN --
------------------------------------------------------------------------------
------------------------------------------------------------------------------
                   ___                                                        
                  /   \      - P O W E R E D   B Y -                         
                 /     \                                                     
                 |  |  |   _    _      __       _____    __    __             
                 |  |  |  | |  | |    /  \     |  _  \  |  |  /  |          
                  \  \/   | |  | |   /    \    | | | |  |  | /  /          
                 / \  \   | |__| |  /  /\  \   | |_| |  |  |/  /          
                |  |  |   |  __  | /  /__\  \  |    /   |      \           
                |  |  |   | |  | | |   __   |  |    \   |  |\   \          
                \     /   | |  | | |  |  |  |  | |\  \  |  | \   \       
                 \___/    |_|  |_| |__|  |__|  |_| \__\ |__|  \__/        
                                                                              
                      - O R C A' S   B I G   F R I E N D -                    
                                      &                                       
                       - I N T E G R A L  F E E D E R -                       
                                                                              
 v1 FN, 2020, v2 2021                                                         
------------------------------------------------------------------------------


Reading SHARK input file /home/rwth0701/scratch/cs681498/orcajob__30556517-DeV8/16348.SHARKINP.tmp ... ok
----------------------
SHARK INTEGRAL PACKAGE
----------------------

Number of atoms                             ...      4
Number of basis functions                   ...     73
Number of shells                            ...     37
Maximum angular momentum                    ...      3
Integral batch strategy                     ... SHARK/LIBINT Hybrid
RI-J (if used) integral strategy            ... SPLIT-RIJ (Revised 2003 algorithm where possible)
Printlevel                                  ...      1
Contraction scheme used                     ... SEGMENTED contraction
Coulomb Range Separation                    ... NOT USED
Exchange Range Separation                   ... NOT USED
Finite Nucleus Model                        ... NOT USED
Auxiliary Coulomb fitting basis             ... AVAILABLE
   # of basis functions in Aux-J            ...    393
   # of shells in Aux-J                     ...    145
   Maximum angular momentum in Aux-J        ...      4
Auxiliary J/K fitting basis                 ... AVAILABLE
   # of basis functions in Aux-JK           ...    393
   # of shells in Aux-JK                    ...    145
   Maximum angular momentum in Aux-JK       ...      4
Auxiliary Correlation fitting basis         ... AVAILABLE
   # of basis functions in Aux-C            ...    393
   # of shells in Aux-C                     ...    145
   Maximum angular momentum in Aux-C        ...      4
Auxiliary 'external' fitting basis          ... NOT available
Integral threshold                          ...     1.000000e-10
Primitive cut-off                           ...     1.000000e-11
Primitive pair pre-selection threshold      ...     1.000000e-11

Calculating pre-screening integrals         ... done (  0.0 sec) Dimension = 37
Organizing shell pair data                  ... done (  0.0 sec)
Shell pair information
Total number of shell pairs                 ...       703
Shell pairs after pre-screening             ...       688
Total number of primitive shell pairs       ...      1300
Primitive shell pairs kept                  ...      1183
          la=0 lb=0:    261 shell pairs
          la=1 lb=0:    253 shell pairs
          la=1 lb=1:     66 shell pairs
          la=2 lb=0:     46 shell pairs
          la=2 lb=1:     22 shell pairs
          la=2 lb=2:      3 shell pairs
          la=3 lb=0:     23 shell pairs
          la=3 lb=1:     11 shell pairs
          la=3 lb=2:      2 shell pairs
          la=3 lb=3:      1 shell pairs

Calculating one electron integrals          ... done (  0.0 sec)
Calculating RI/J V-Matrix + Cholesky decomp.... done (  0.1 sec)
Calculating RI/JK V-Matrix + Cholesky decomp... done (  0.1 sec)
Calculating RI/C V-Matrix + Cholesky decomp.... done (  0.1 sec)
Calculating Nuclear repulsion               ... done (  0.0 sec) ENN=      9.723974097933 Eh

SHARK setup successfully completed in   0.6 seconds

Maximum memory used throughout the entire GTOINT-calculation: 13.7 MB


           ************************************************************
           *        Program running with 4 parallel MPI-processes     *
           *              working on a common directory               *
           ************************************************************
-------------------------------------------------------------------------------
                                 ORCA SCF
-------------------------------------------------------------------------------

------------
SCF SETTINGS
------------
Hamiltonian:
 Density Functional     Method          .... DFT(GTOs)
 Exchange Functional    Exchange        .... B88
   X-Alpha parameter    XAlpha          ....  0.666667
   Becke's b parameter  XBeta           ....  0.004200
 Correlation Functional Correlation     .... LYP
 LDA part of GGA corr.  LDAOpt          .... VWN-5
 Gradients option       PostSCFGGA      .... off
 Hybrid DFT is turned on
   Fraction HF Exchange ScalHFX         ....  0.200000
   Scaling of DF-GGA-X  ScalDFX         ....  0.720000
   Scaling of DF-GGA-C  ScalDFC         ....  0.810000
   Scaling of DF-LDA-C  ScalLDAC        ....  1.000000
   Perturbative correction              ....  0.000000
   Density functional embedding theory  .... OFF
   NL short-range parameter             ....  4.800000
 RI-approximation to the Coulomb term is turned on
   Number of AuxJ basis functions       .... 393
   RIJ-COSX (HFX calculated with COS-X)).... on


General Settings:
 Integral files         IntName         .... /home/rwth0701/scratch/cs681498/orcajob__30556517-DeV8/16348
 Hartree-Fock type      HFTyp           .... UHF
 Total Charge           Charge          ....    0
 Multiplicity           Mult            ....    2
 Number of Electrons    NEL             ....    9
 Basis Dimension        Dim             ....   73
 Nuclear Repulsion      ENuc            ....      9.7239740979 Eh

Convergence Acceleration:
 DIIS                   CNVDIIS         .... on
   Start iteration      DIISMaxIt       ....    12
   Startup error        DIISStart       ....  0.200000
   # of expansion vecs  DIISMaxEq       ....     5
   Bias factor          DIISBfac        ....   1.050
   Max. coefficient     DIISMaxC        ....  10.000
 Trust-Rad. Augm. Hess. CNVTRAH         .... auto
   Auto Start mean grad. ratio tolernc. ....  1.125000
   Auto Start start iteration           ....    20
   Auto Start num. interpolation iter.  ....    10
   Max. Number of Micro iterations      ....    16
   Max. Number of Macro iterations      .... Maxiter - #DIIS iter
   Number of Davidson start vectors     ....     2
   Converg. threshold I  (grad. norm)   ....   5.000e-05
   Converg. threshold II (energy diff.) ....   1.000e-06
   Grad. Scal. Fac. for Micro threshold ....   0.100
   Minimum threshold for Micro iter.    ....   0.010
   NR start threshold (gradient norm)   ....   0.001
   Initial trust radius                 ....   0.400
   Minimum AH scaling param. (alpha)    ....   1.000
   Maximum AH scaling param. (alpha)    .... 1000.000
   Orbital update algorithm             .... Taylor
   White noise on init. David. guess    .... on
   Maximum white noise                  ....   0.010
   Quad. conv. algorithm                .... NR
 SOSCF                  CNVSOSCF        .... off
 Level Shifting         CNVShift        .... on
   Level shift para.    LevelShift      ....    0.2500
   Turn off err/grad.   ShiftErr        ....    0.0010
 Zerner damping         CNVZerner       .... off
 Static damping         CNVDamp         .... on
   Fraction old density DampFac         ....    0.7000
   Max. Damping (<1)    DampMax         ....    0.9800
   Min. Damping (>=0)   DampMin         ....    0.0000
   Turn off err/grad.   DampErr         ....    0.1000
 Fernandez-Rico         CNVRico         .... off

SCF Procedure:
 Maximum # iterations   MaxIter         ....   125
 SCF integral mode      SCFMode         .... Direct
   Integral package                     .... SHARK and LIBINT hybrid scheme
 Reset frequency        DirectResetFreq ....    20
 Integral Threshold     Thresh          ....  1.000e-10 Eh
 Primitive CutOff       TCut            ....  1.000e-11 Eh

Convergence Tolerance:
 Convergence Check Mode ConvCheckMode   .... Total+1el-Energy
 Convergence forced     ConvForced      .... 0
 Energy Change          TolE            ....  1.000e-06 Eh
 1-El. energy change                    ....  1.000e-03 Eh
 DIIS Error             TolErr          ....  1.000e-06


Diagonalization of the overlap matrix:
Smallest eigenvalue                        ... 1.553e-03
Time for diagonalization                   ...    0.002 sec
Threshold for overlap eigenvalues          ... 1.000e-08
Number of eigenvalues below threshold      ... 0
Time for construction of square roots      ...    0.010 sec
Total time needed                          ...    0.012 sec

Time for model grid setup =    0.083 sec

------------------------------
INITIAL GUESS: MODEL POTENTIAL
------------------------------
Loading Hartree-Fock densities                     ... done
Calculating cut-offs                               ... done
Initializing the effective Hamiltonian             ... done
Setting up the integral package (SHARK)            ... done
Starting the Coulomb interaction                   ... done (   0.1 sec)
Reading the grid                                   ... done
Mapping shells                                     ... done
Starting the XC term evaluation                    ... done (   0.0 sec)
  promolecular density results
     # of electrons  =      8.998476055
     EX              =     -5.973276479
     EC              =     -0.260522130
     EX+EC           =     -6.233798609
Transforming the Hamiltonian                       ... done (   0.0 sec)
Diagonalizing the Hamiltonian                      ... done (   0.0 sec)
Back transforming the eigenvectors                 ... done (   0.0 sec)
Now organizing SCF variables                       ... done
                      ------------------
                      INITIAL GUESS DONE (   0.2 sec)
                      ------------------
-------------------
DFT GRID GENERATION
-------------------

General Integration Accuracy     IntAcc      ... 4.388
Radial Grid Type                 RadialGrid  ... OptM3 with GC (2021)
Angular Grid (max. ang.)         AngularGrid ... 4 (Lebedev-302)
Angular grid pruning method      GridPruning ... 4 (adaptive)
Weight generation scheme         WeightScheme... Becke
Basis function cutoff            BFCut       ... 1.0000e-10
Integration weight cutoff        WCut        ... 1.0000e-14
Angular grids for H and He will be reduced by one unit
Partially contracted basis set               ... off
Rotationally invariant grid construction     ... off

Total number of grid points                  ...    17036
Total number of batches                      ...      268
Average number of points per batch           ...       63
Average number of grid points per atom       ...     4259
Time for grid setup =    0.226 sec

--------------------
COSX GRID GENERATION
--------------------

GRIDX 1
-------
General Integration Accuracy     IntAcc      ... 3.816
Radial Grid Type                 RadialGrid  ... OptM3 with GC (2021)
Angular Grid (max. ang.)         AngularGrid ... 1 (Lebedev-50)
Angular grid pruning method      GridPruning ... 4 (adaptive)
Weight generation scheme         WeightScheme... Becke
Basis function cutoff            BFCut       ... 1.0000e-10
Integration weight cutoff        WCut        ... 1.0000e-14
Angular grids for H and He will be reduced by one unit
Partially contracted basis set               ... on
Rotationally invariant grid construction     ... off

Total number of grid points                  ...     2140
Total number of batches                      ...       35
Average number of points per batch           ...       61
Average number of grid points per atom       ...      535
UseSFitting                                  ... on

GRIDX 2
-------
General Integration Accuracy     IntAcc      ... 4.020
Radial Grid Type                 RadialGrid  ... OptM3 with GC (2021)
Angular Grid (max. ang.)         AngularGrid ... 2 (Lebedev-110)
Angular grid pruning method      GridPruning ... 4 (adaptive)
Weight generation scheme         WeightScheme... Becke
Basis function cutoff            BFCut       ... 1.0000e-10
Integration weight cutoff        WCut        ... 1.0000e-14
Angular grids for H and He will be reduced by one unit
Partially contracted basis set               ... on
Rotationally invariant grid construction     ... off

Total number of grid points                  ...     5055
Total number of batches                      ...       81
Average number of points per batch           ...       62
Average number of grid points per atom       ...     1264
UseSFitting                                  ... on

GRIDX 3
-------
General Integration Accuracy     IntAcc      ... 4.338
Radial Grid Type                 RadialGrid  ... OptM3 with GC (2021)
Angular Grid (max. ang.)         AngularGrid ... 3 (Lebedev-194)
Angular grid pruning method      GridPruning ... 4 (adaptive)
Weight generation scheme         WeightScheme... Becke
Basis function cutoff            BFCut       ... 1.0000e-10
Integration weight cutoff        WCut        ... 1.0000e-14
Angular grids for H and He will be reduced by one unit
Partially contracted basis set               ... on
Rotationally invariant grid construction     ... off

Total number of grid points                  ...    11711
Total number of batches                      ...      185
Average number of points per batch           ...       63
Average number of grid points per atom       ...     2928
UseSFitting                                  ... on

Time for X-Grid setup             =    0.370 sec

--------------
SCF ITERATIONS
--------------
ITER       Energy         Delta-E        Max-DP      RMS-DP      [F,P]     Damp
               ***  Starting incremental Fock matrix formation  ***
  0    -39.7811551305   0.000000000000 0.01566118  0.00050860  0.0930538 0.7000
  1    -39.8006447489  -0.019489618468 0.00980863  0.00037879  0.0490135 0.7000
                               ***Turning on DIIS***
  2    -39.8092994726  -0.008654723644 0.01575870  0.00066055  0.0198764 0.0000
  3    -39.8211151377  -0.011815665129 0.00878792  0.00028495  0.0288606 0.0000
  4    -39.8247010842  -0.003585946534 0.00309070  0.00008009  0.0059802 0.0000
  5    -39.8248483529  -0.000147268616 0.00109374  0.00003287  0.0019632 0.0000
  6    -39.8248657507  -0.000017397829 0.00090101  0.00002505  0.0008269 0.0000
               *** Restarting incremental Fock matrix formation ***
                                   *** Resetting DIIS ***
  7    -39.8248825607  -0.000016810038 0.00007825  0.00000297  0.0000965 0.0000
                 **** Energy Check signals convergence ****

               *****************************************************
               *                     SUCCESS                       *
               *           SCF CONVERGED AFTER   8 CYCLES          *
               *****************************************************

Old exchange energy                            =     -1.242520962 Eh
New exchange energy                            =     -1.242519775 Eh
Exchange energy change after final integration =      0.000001187 Eh
Total energy after final integration           =    -39.824881445 Eh
Final COS-X integration done in                =     0.175 sec

----------------
TOTAL SCF ENERGY
----------------

Total Energy       :          -39.82488145 Eh           -1083.69012 eV

Components:
Nuclear Repulsion  :            9.72397410 Eh             264.60279 eV
Electronic Energy  :          -49.54885554 Eh           -1348.29291 eV
One Electron Energy:          -71.73684234 Eh           -1952.05872 eV
Two Electron Energy:           22.18798680 Eh             603.76582 eV
Max COSX asymmetry :            0.00000008 Eh               0.00000 eV

Virial components:
Potential Energy   :          -79.47586624 Eh           -2162.64827 eV
Kinetic Energy     :           39.65098480 Eh            1078.95815 eV
Virial Ratio       :            2.00438568


DFT components:
N(Alpha)           :        4.999999017648 electrons
N(Beta)            :        4.000000149115 electrons
N(Total)           :        8.999999166763 electrons
E(X)               :       -4.917466182406 Eh       
E(C)               :       -0.309927804734 Eh       
E(XC)              :       -5.227393987140 Eh       
DFET-embed. en.    :        0.000000000000 Eh       

---------------
SCF CONVERGENCE
---------------

  Last Energy change         ...   -7.1876e-08  Tolerance :   1.0000e-06
  Last MAX-Density change    ...    0.0000e+00  Tolerance :   1.0000e-05
  Last RMS-Density change    ...    0.0000e+00  Tolerance :   1.0000e-06
  Last DIIS Error            ...    6.7225e-05  Tolerance :   1.0000e-06

             **** THE GBW FILE WAS UPDATED (/home/rwth0701/scratch/cs681498/orcajob__30556517-DeV8/16348.gbw) ****
             **** DENSITY /home/rwth0701/scratch/cs681498/orcajob__30556517-DeV8/16348.scfp WAS UPDATED ****
             **** ENERGY FILE WAS UPDATED (/home/rwth0701/scratch/cs681498/orcajob__30556517-DeV8/16348.en.tmp) ****
----------------------
UHF SPIN CONTAMINATION
----------------------

Warning: in a DFT calculation there is little theoretical justification to 
         calculate <S**2> as in Hartree-Fock theory. We will do it anyways
         but you should keep in mind that the values have only limited relevance

Expectation value of <S**2>     :     0.753592
Ideal value S*(S+1) for S=0.5   :     0.750000
Deviation                       :     0.003592

             **** THE GBW FILE WAS UPDATED (/home/rwth0701/scratch/cs681498/orcajob__30556517-DeV8/16348.gbw) ****
             **** DENSITY /home/rwth0701/scratch/cs681498/orcajob__30556517-DeV8/16348.scfp WAS UPDATED ****
----------------
ORBITAL ENERGIES
----------------
                 SPIN UP ORBITALS
  NO   OCC          E(Eh)            E(eV) 
   0   1.0000     -10.182737      -277.0864 
   1   1.0000      -0.689727       -18.7684 
   2   1.0000      -0.441938       -12.0257 
   3   1.0000      -0.406022       -11.0484 
   4   1.0000      -0.234960        -6.3936 
   5   0.0000       0.001090         0.0297 
   6   0.0000       0.035210         0.9581 
   7   0.0000       0.038208         1.0397 
   8   0.0000       0.047493         1.2924 
   9   0.0000       0.087273         2.3748 
  10   0.0000       0.092223         2.5095 
  11   0.0000       0.100372         2.7313 
  12   0.0000       0.220270         5.9938 
  13   0.0000       0.223258         6.0752 
  14   0.0000       0.248733         6.7684 
  15   0.0000       0.276217         7.5162 
  16   0.0000       0.292816         7.9679 
  17   0.0000       0.326741         8.8911 
  18   0.0000       0.345999         9.4151 
  19   0.0000       0.555097        15.1050 
  20   0.0000       0.564161        15.3516 
  21   0.0000       0.731394        19.9022 
  22   0.0000       0.744629        20.2624 
  23   0.0000       0.770642        20.9702 
  24   0.0000       0.839766        22.8512 
  25   0.0000       0.888671        24.1820 
  26   0.0000       0.906377        24.6638 
  27   0.0000       0.939697        25.5704 
  28   0.0000       0.965963        26.2852 
  29   0.0000       1.051770        28.6201 
  30   0.0000       1.067024        29.0352 
  31   0.0000       1.125047        30.6141 
  32   0.0000       1.162882        31.6436 
  33   0.0000       1.171103        31.8673 
  34   0.0000       1.447443        39.3869 
  35   0.0000       1.498958        40.7887 
  36   0.0000       1.512936        41.1691 
  37   0.0000       1.688830        45.9554 
  38   0.0000       1.755392        47.7667 
  39   0.0000       1.767253        48.0894 
  40   0.0000       2.706027        73.6347 
  41   0.0000       2.736478        74.4634 
  42   0.0000       2.879944        78.3673 
  43   0.0000       2.892266        78.7026 
  44   0.0000       2.904278        79.0294 
  45   0.0000       2.990818        81.3843 
  46   0.0000       2.997853        81.5757 
  47   0.0000       3.159931        85.9861 
  48   0.0000       3.169034        86.2338 
  49   0.0000       3.243339        88.2558 
  50   0.0000       3.258166        88.6592 
  51   0.0000       3.713865       101.0594 
  52   0.0000       3.761831       102.3646 
  53   0.0000       3.811616       103.7193 
  54   0.0000       3.886499       105.7570 
  55   0.0000       3.984147       108.4141 
  56   0.0000       4.032609       109.7329 
  57   0.0000       4.155223       113.0694 
  58   0.0000       4.189986       114.0153 
  59   0.0000       4.209222       114.5387 
  60   0.0000       4.681093       127.3790 
  61   0.0000       4.995868       135.9445 
  62   0.0000       5.335657       145.1906 
  63   0.0000       5.489476       149.3762 
  64   0.0000       5.584259       151.9554 
  65   0.0000       6.051522       164.6703 
  66   0.0000       6.208034       168.9292 
  67   0.0000       7.774711       211.5606 
  68   0.0000      29.088871       791.5484 
  69   0.0000      37.109113      1009.7903 
  70   0.0000      37.224365      1012.9265 
  71   0.0000      37.264692      1014.0238 
  72   0.0000     133.550869      3634.1039 

                 SPIN DOWN ORBITALS
  NO   OCC          E(Eh)            E(eV) 
   0   1.0000     -10.168327      -276.6942 
   1   1.0000      -0.650303       -17.6956 
   2   1.0000      -0.432303       -11.7636 
   3   1.0000      -0.396627       -10.7928 
   4   0.0000      -0.077522        -2.1095 
   5   0.0000       0.004178         0.1137 
   6   0.0000       0.034832         0.9478 
   7   0.0000       0.037819         1.0291 
   8   0.0000       0.060723         1.6524 
   9   0.0000       0.087790         2.3889 
  10   0.0000       0.097139         2.6433 
  11   0.0000       0.101471         2.7612 
  12   0.0000       0.221665         6.0318 
  13   0.0000       0.224637         6.1127 
  14   0.0000       0.268388         7.3032 
  15   0.0000       0.298034         8.1099 
  16   0.0000       0.310564         8.4509 
  17   0.0000       0.331641         9.0244 
  18   0.0000       0.359456         9.7813 
  19   0.0000       0.582336        15.8462 
  20   0.0000       0.591341        16.0912 
  21   0.0000       0.734810        19.9952 
  22   0.0000       0.745781        20.2937 
  23   0.0000       0.795991        21.6600 
  24   0.0000       0.837983        22.8027 
  25   0.0000       0.892826        24.2950 
  26   0.0000       0.911197        24.7949 
  27   0.0000       0.957062        26.0430 
  28   0.0000       0.985903        26.8278 
  29   0.0000       1.076286        29.2872 
  30   0.0000       1.123318        30.5670 
  31   0.0000       1.146882        31.2082 
  32   0.0000       1.176257        32.0076 
  33   0.0000       1.182808        32.1858 
  34   0.0000       1.462583        39.7989 
  35   0.0000       1.511312        41.1249 
  36   0.0000       1.523249        41.4497 
  37   0.0000       1.695235        46.1297 
  38   0.0000       1.762351        47.9560 
  39   0.0000       1.775367        48.3102 
  40   0.0000       2.746933        74.7479 
  41   0.0000       2.777293        75.5740 
  42   0.0000       2.881645        78.4135 
  43   0.0000       2.900818        78.9353 
  44   0.0000       2.976035        80.9820 
  45   0.0000       3.007032        81.8255 
  46   0.0000       3.044670        82.8497 
  47   0.0000       3.210799        87.3703 
  48   0.0000       3.218769        87.5871 
  49   0.0000       3.298468        89.7559 
  50   0.0000       3.317105        90.2630 
  51   0.0000       3.761995       102.3691 
  52   0.0000       3.773771       102.6895 
  53   0.0000       3.813182       103.7619 
  54   0.0000       3.885516       105.7303 
  55   0.0000       4.001200       108.8782 
  56   0.0000       4.049683       110.1975 
  57   0.0000       4.159287       113.1799 
  58   0.0000       4.211894       114.6115 
  59   0.0000       4.213831       114.6642 
  60   0.0000       4.681423       127.3880 
  61   0.0000       5.016596       136.5085 
  62   0.0000       5.335996       145.1998 
  63   0.0000       5.487428       149.3205 
  64   0.0000       5.582056       151.8955 
  65   0.0000       6.054097       164.7403 
  66   0.0000       6.211755       169.0305 
  67   0.0000       7.810180       212.5258 
  68   0.0000      29.115739       792.2795 
  69   0.0000      37.097066      1009.4625 
  70   0.0000      37.212756      1012.6106 
  71   0.0000      37.253294      1013.7137 
  72   0.0000     133.558714      3634.3174 

                    ********************************
                    * MULLIKEN POPULATION ANALYSIS *
                    ********************************

--------------------------------------------
MULLIKEN ATOMIC CHARGES AND SPIN POPULATIONS
--------------------------------------------
   0 C :   -0.427861    1.102527
   1 H :    0.148950   -0.032543
   2 H :    0.130945   -0.038032
   3 H :    0.147965   -0.031952
Sum of atomic charges         :    0.0000000
Sum of atomic spin populations:    1.0000000

-----------------------------------------------------
MULLIKEN REDUCED ORBITAL CHARGES AND SPIN POPULATIONS
-----------------------------------------------------
CHARGE
  0 C s       :     3.327416  s :     3.327416
      pz      :     0.968398  p :     3.073560
      px      :     1.053127
      py      :     1.052036
      dz2     :     0.005690  d :     0.023777
      dxz     :     0.000089
      dyz     :     0.000229
      dx2y2   :     0.008687
      dxy     :     0.009081
      f0      :     0.000044  f :     0.003107
      f+1     :     0.000780
      f-1     :     0.000615
      f+2     :     0.000019
      f-2     :     0.000030
      f+3     :     0.001112
      f-3     :     0.000507
  1 H s       :     0.822945  s :     0.822945
      pz      :     0.011238  p :     0.028106
      px      :     0.009997
      py      :     0.006870
  2 H s       :     0.844860  s :     0.844860
      pz      :     0.009508  p :     0.024195
      px      :     0.005943
      py      :     0.008743
  3 H s       :     0.823224  s :     0.823224
      pz      :     0.011429  p :     0.028811
      px      :     0.008736
      py      :     0.008646

SPIN
  0 C s       :     0.067058  s :     0.067058
      pz      :     0.959431  p :     1.039812
      px      :     0.035316
      py      :     0.045065
      dz2     :    -0.004635  d :    -0.002990
      dxz     :     0.000003
      dyz     :    -0.000102
      dx2y2   :     0.000846
      dxy     :     0.000898
      f0      :    -0.000024  f :    -0.001354
      f+1     :    -0.000676
      f-1     :    -0.000571
      f+2     :    -0.000010
      f-2     :    -0.000012
      f+3     :    -0.000045
      f-3     :    -0.000016
  1 H s       :    -0.043523  s :    -0.043523
      pz      :     0.011171  p :     0.010980
      px      :    -0.000050
      py      :    -0.000141
  2 H s       :    -0.046995  s :    -0.046995
      pz      :     0.009416  p :     0.008962
      px      :    -0.000332
      py      :    -0.000122
  3 H s       :    -0.042928  s :    -0.042928
      pz      :     0.011356  p :     0.010976
      px      :    -0.000125
      py      :    -0.000255


                     *******************************
                     * LOEWDIN POPULATION ANALYSIS *
                     *******************************

-------------------------------------------
LOEWDIN ATOMIC CHARGES AND SPIN POPULATIONS
-------------------------------------------
   0 C :   -0.142801    0.904829
   1 H :    0.041771    0.034027
   2 H :    0.071309    0.023305
   3 H :    0.029721    0.037838

----------------------------------------------------
LOEWDIN REDUCED ORBITAL CHARGES AND SPIN POPULATIONS
----------------------------------------------------
CHARGE
  0 C s       :     2.876918  s :     2.876918
      pz      :     0.872129  p :     3.166831
      px      :     1.151318
      py      :     1.143384
      dz2     :     0.007200  d :     0.091381
      dxz     :     0.000373
      dyz     :     0.000589
      dx2y2   :     0.041568
      dxy     :     0.041651
      f0      :     0.000286  f :     0.007671
      f+1     :     0.002176
      f-1     :     0.001686
      f+2     :     0.000058
      f-2     :     0.000072
      f+3     :     0.002329
      f-3     :     0.001064
  1 H s       :     0.806867  s :     0.806867
      pz      :     0.044975  p :     0.151362
      px      :     0.071366
      py      :     0.035021
  2 H s       :     0.798475  s :     0.798475
      pz      :     0.037364  p :     0.130215
      px      :     0.031500
      py      :     0.061351
  3 H s       :     0.810631  s :     0.810631
      pz      :     0.047922  p :     0.159648
      px      :     0.054748
      py      :     0.056978

SPIN
  0 C s       :     0.018872  s :     0.018872
      pz      :     0.862142  p :     0.894749
      px      :     0.011568
      py      :     0.021039
      dz2     :    -0.004053  d :    -0.007482
      dxz     :    -0.000020
      dyz     :    -0.000108
      dx2y2   :    -0.001675
      dxy     :    -0.001626
      f0      :     0.000159  f :    -0.001310
      f+1     :    -0.000613
      f-1     :    -0.000515
      f+2     :    -0.000011
      f-2     :    -0.000013
      f+3     :    -0.000223
      f-3     :    -0.000094
  1 H s       :    -0.016402  s :    -0.016402
      pz      :     0.044666  p :     0.050429
      px      :     0.004708
      py      :     0.001055
  2 H s       :    -0.018405  s :    -0.018405
      pz      :     0.036816  p :     0.041710
      px      :     0.000897
      py      :     0.003997
  3 H s       :    -0.015344  s :    -0.015344
      pz      :     0.047465  p :     0.053182
      px      :     0.002855
      py      :     0.002862


                      *****************************
                      * MAYER POPULATION ANALYSIS *
                      *****************************

  NA   - Mulliken gross atomic population
  ZA   - Total nuclear charge
  QA   - Mulliken gross atomic charge
  VA   - Mayer's total valence
  BVA  - Mayer's bonded valence
  FA   - Mayer's free valence

  ATOM       NA         ZA         QA         VA         BVA        FA
  0 C      6.4279     6.0000    -0.4279     3.8802     2.9357     0.9445
  1 H      0.8511     1.0000     0.1489     0.9858     0.9839     0.0019
  2 H      0.8691     1.0000     0.1309     0.9824     0.9802     0.0022
  3 H      0.8520     1.0000     0.1480     0.9836     0.9818     0.0019

  Mayer bond orders larger than 0.100000
B(  0-C ,  1-H ) :   0.9777 B(  0-C ,  2-H ) :   0.9797 B(  0-C ,  3-H ) :   0.9782 


-------
TIMINGS
-------

Total SCF time: 0 days 0 hours 0 min 6 sec 

Total time                  ....       6.467 sec
Sum of individual times     ....       5.743 sec  ( 88.8%)

Fock matrix formation       ....       4.819 sec  ( 74.5%)
  Split-RI-J                ....       0.413 sec  (  8.6% of F)
  Chain of spheres X        ....       1.086 sec  ( 22.5% of F)
  XC integration            ....       1.923 sec  ( 39.9% of F)
    Basis function eval.    ....       0.110 sec  (  5.7% of XC)
    Density eval.           ....       0.122 sec  (  6.3% of XC)
    XC-Functional eval.     ....       0.094 sec  (  4.9% of XC)
    XC-Potential eval.      ....       0.157 sec  (  8.2% of XC)
Diagonalization             ....       0.037 sec  (  0.6%)
Density matrix formation    ....       0.002 sec  (  0.0%)
Population analysis         ....       0.053 sec  (  0.8%)
Initial guess               ....       0.091 sec  (  1.4%)
Orbital Transformation      ....       0.000 sec  (  0.0%)
Orbital Orthonormalization  ....       0.000 sec  (  0.0%)
DIIS solution               ....       0.062 sec  (  1.0%)
Grid generation             ....       0.679 sec  ( 10.5%)

Maximum memory used throughout the entire SCF-calculation: 59.0 MB

-------------------------   --------------------
FINAL SINGLE POINT ENERGY       -39.824881445373
-------------------------   --------------------

   --->>> g-tensor requested, so NeedSOC=true

                            ***************************************
                            *     ORCA property calculations      *
                            ***************************************

                                    ---------------------
                                    Active property flags
                                    ---------------------
   (+) Dipole Moment
   (+) g-tensor
   (+) Nuclear properties (Hyperfine,Quadrupole)
   (+) Spin-Orbit Integrals are needed


------------------------------------------------------------------------------
                       ORCA ELECTRIC PROPERTIES CALCULATION
------------------------------------------------------------------------------

Dipole Moment Calculation                       ... on
Quadrupole Moment Calculation                   ... off
Polarizability Calculation                      ... off
GBWName                                         ... /home/rwth0701/scratch/cs681498/orcajob__30556517-DeV8/16348.gbw
Electron density                                ... /home/rwth0701/scratch/cs681498/orcajob__30556517-DeV8/16348.scfp
The origin for moment calculation is the CENTER OF MASS  = (-141.598255, -189.327766 -55.086515)

-------------
DIPOLE MOMENT
-------------
                                X             Y             Z
Electronic contribution:     -0.06350       0.14140       0.02713
Nuclear contribution   :      0.06835      -0.13877      -0.03615
                        -----------------------------------------
Total Dipole Moment    :      0.00485       0.00263      -0.00902
                        -----------------------------------------
Magnitude (a.u.)       :      0.01058
Magnitude (Debye)      :      0.02688



--------------------
Rotational spectrum 
--------------------
 
Rotational constants in cm-1:    10.109047     9.209849     4.820044 
Rotational constants in MHz : 303061.605001 276104.328924 144501.291097 

 Dipole components along the rotational axes: 
x,y,z [a.u.] :     0.004284     0.002592    -0.009315 
x,y,z [Debye]:     0.010888     0.006588    -0.023677 

 


           ************************************************************
           *        Program running with 4 parallel MPI-processes     *
           *              working on a common directory               *
           ************************************************************
------------------------------------------------------------------------------
                         ORCA SPIN-ORBIT COUPLING CALCULATION
------------------------------------------------------------------------------

GBW file                                    ... /home/rwth0701/scratch/cs681498/orcajob__30556517-DeV8/16348.gbw
Input density                               ... /home/rwth0701/scratch/cs681498/orcajob__30556517-DeV8/16348.scfp
Output integrals                            ... /home/rwth0701/scratch/cs681498/orcajob__30556517-DeV8/16348
Operator type                               ... Mean-field/Effective potential
   One-Electron Terms                       ... 1
   Coulomb Contribution                     ... 3
   Exchange Contribution                    ... 3
   Correlation Contribution                 ... 0
   Maximum number of centers                ... 4
SHARK 2-electron RIJ-SOMF                   ... done (  0.1 sec)
SHARK 1-electron  MaxCenter=4               ... done (  0.0 sec)
SHARK 2-electron DoJ,X=0,1 MaxCenter=1      ... done (  0.1 sec)

Maximum memory used throughout the entire SOC-calculation: 11.3 MB
Total time for SOC:  2.748


           ************************************************************
           *        Program running with 4 parallel MPI-processes     *
           *              working on a common directory               *
           ************************************************************
------------------------------------------------------------------------------
                                ORCA EPR/NMR CALCULATION
------------------------------------------------------------------------------

GBWName                      ... /home/rwth0701/scratch/cs681498/orcajob__30556517-DeV8/16348.gbw
Electron density             ... /home/rwth0701/scratch/cs681498/orcajob__30556517-DeV8/16348.scfp
Spin density                 ... /home/rwth0701/scratch/cs681498/orcajob__30556517-DeV8/16348.scfr
Spin-orbit integrals         ... /home/rwth0701/scratch/cs681498/orcajob__30556517-DeV8/16348
Treatment of gauge           ... GIAO (approximations 1/2el = 0,0)
Details of the CP(SCF) procedure:
       Solver   = POPLE   
       MaxIter  =    64   
       Tolerance=    1.000e-03
       COSX Grid=     1   
       Op-0     =   0-  4 =>   5- 72
       Op-1     =   0-  3 =>   4- 72
Multiplicity                 ... 2
g-tensor                     ... 1
NMR chemical shifts          ... 0
NMR spin-spin couplings      ... 0
NMR spectrum                 ... 0
Number of nuclei for epr/nmr ... 4
   Nucleus:   1H 
       Hyperfine : Isotope=    1 I=   0.500 P= 533.551
       Quadrupole: Isotope=    2 I=   1.000 Q=   0.003
       Spin-Orbit: Zeff=   1.000
       Nuclear Spin-Spin: Gn=   0.000
       EPRNMR Input: 
       rho(0)=N f(grad)=N a(iso)=Y a(dip)=Y a(orb)=Y sigma(nmr)=N spin-spin(nmr)=all-N,DSO-N,PSO-N,FC-N,SD-N
   Nucleus:   2H 
       Hyperfine : Isotope=    1 I=   0.500 P= 533.551
       Quadrupole: Isotope=    2 I=   1.000 Q=   0.003
       Spin-Orbit: Zeff=   1.000
       Nuclear Spin-Spin: Gn=   0.000
       EPRNMR Input: 
       rho(0)=N f(grad)=N a(iso)=Y a(dip)=Y a(orb)=Y sigma(nmr)=N spin-spin(nmr)=all-N,DSO-N,PSO-N,FC-N,SD-N
   Nucleus:   3H 
       Hyperfine : Isotope=    1 I=   0.500 P= 533.551
       Quadrupole: Isotope=    2 I=   1.000 Q=   0.003
       Spin-Orbit: Zeff=   1.000
       Nuclear Spin-Spin: Gn=   0.000
       EPRNMR Input: 
       rho(0)=N f(grad)=N a(iso)=Y a(dip)=Y a(orb)=Y sigma(nmr)=N spin-spin(nmr)=all-N,DSO-N,PSO-N,FC-N,SD-N
   Nucleus:   0C 
       Hyperfine : Isotope=   13 I=   0.500 P= 134.190
       Quadrupole: Isotope=   13 I=   0.500 Q=   0.000
       Spin-Orbit: Zeff=   3.600
       Nuclear Spin-Spin: Gn=   0.000
       EPRNMR Input: 
       rho(0)=N f(grad)=N a(iso)=Y a(dip)=Y a(orb)=Y sigma(nmr)=N spin-spin(nmr)=all-N,DSO-N,PSO-N,FC-N,SD-N
Forming RHS of the CP-SCF equations         ... 
Calculating right hand sides for GIAO treatment        ... 
  Entering RightHandSide GIAO. ScalHFX=    0.2000 NeedHFX=1
     -> 1-electron GIAO integrals will be done analytically
     -> RIJCOSX used in SCF. Same chosen for GIAO calculation.
     Making grid for GIAO integrations   ...

GRID GIAO
---------

General Integration Accuracy     IntAcc      ... 4.388
Radial Grid Type                 RadialGrid  ... OptM3 with GC (2021)
Angular Grid (max. ang.)         AngularGrid ... 4 (Lebedev-302)
Angular grid pruning method      GridPruning ... 4 (adaptive)
Weight generation scheme         WeightScheme... Becke
Basis function cutoff            BFCut       ... 1.0000e-10
Integration weight cutoff        WCut        ... 1.0000e-14
Angular grids for H and He will be reduced by one unit
Partially contracted basis set               ... off
Rotationally invariant grid construction     ... off

Total number of grid points                  ...    17036
Total number of batches                      ...      268
Average number of points per batch           ...       63
Average number of grid points per atom       ...     4259

  One-electron GIAO integrals (SHARK)     ... done
  Calculating G(B)[P]                     ... (RI-J: SHARK-ok) (COSX-ok) (add-J+K:ok) => dG/dB done
  DFT XC-terms                            ... done
  Extracting occupied and virtual blocks  ... 
  Operator  0  NO=   5 NV=  68 
  Operator  1  NO=   4 NV=  69 
  Transforming and RHS contribution       ... done
  Adding eps_i * S(B)_ai terms            ... done
  Projecting overlap derivatives          ... done
  Building G[dS/dB_ij] (COSX)             ... done
  Transforming to MO basis                ... done
  Summing G[dS/dB_ij] into RHS contribs.  ... done

  GIAO profiling information: 
    Total GIAO time               ...       0.8 sec
       GIAO 1-electron integrals  ...       0.0 sec (  0.4%)
       GIAO G(dS/dB) terms        ...       0.1 sec ( 12.4%)
       GIAO RI-J                  ...       0.1 sec ( 12.7%)
       GIAO COSX                  ...       0.1 sec ( 17.1%)
       GIAO XC-terms              ...       0.3 sec ( 38.8%)

  GIAO right hand side done


------------------------------------------------------------------------------
                           ORCA CP-SCF CALCULATION
------------------------------------------------------------------------------

Input orbitals are from        ... /home/rwth0701/scratch/cs681498/orcajob__30556517-DeV8/16348.gbw
Input Perturbation             ... /home/rwth0701/scratch/cs681498/orcajob__30556517-DeV8/16348.pin.tmp
Wavefunction output            ... /home/rwth0701/scratch/cs681498/orcajob__30556517-DeV8/16348.pout.tmp
Perturbation mode              ... Imaginary perturbation
Solver                         ... POPLE
Max. number of iterations      ... 64
Convergence tolerance          ... 1.000e-03
Integral handling              ... Direct
DFT GridXC                     ... 1
COSX GridX                     ... 1
COSX IntAccX                   ... 3.067
COSX Algorithm                 ... Auto
Number of perturbations        ... 3
Number of operators            ... 2
Orbital ranges used for CP-SCF:
 Operator 0:  Orbitals   0...  4  to   5... 72
 Operator 1:  Orbitals   0...  3  to   4... 72
Variables per perturbation     ... 616
DFT calculation                         ... on
XC functional terms                     ... off
Hybrid DFT                              ... on
   Exchange mixing (SCF)                ...  0.200
   Exchange mixing (CP-SCF)             ...  0.200
   GGA exch. scaling(SCF)               ...  0.720
   GGA exch. scaling (CP-SCF)           ...  0.720
   GGA corr. scaling (SCF)              ...  0.810
   GGA corr. scaling (CP-SCF)           ...  0.810

CP-SCF GRID
-----------

General Integration Accuracy     IntAcc      ... 3.467
Radial Grid Type                 RadialGrid  ... OptM3 with GC (2021)
Angular Grid (max. ang.)         AngularGrid ... 1 (Lebedev-50)
Angular grid pruning method      GridPruning ... 4 (adaptive)
Weight generation scheme         WeightScheme... Becke
Basis function cutoff            BFCut       ... 1.0000e-10
Integration weight cutoff        WCut        ... 1.0000e-14
Angular grids for H and He will be reduced by one unit
Partially contracted basis set               ... off
Rotationally invariant grid construction     ... off

Total number of grid points                  ...     2336
Total number of batches                      ...       38
Average number of points per batch           ...       61
Average number of grid points per atom       ...      584

CP-SCF GRIDX
------------

General Integration Accuracy     IntAcc      ... 3.067
Radial Grid Type                 RadialGrid  ... OptM3 with GC (2021)
Angular Grid (max. ang.)         AngularGrid ... 1 (Lebedev-50)
Angular grid pruning method      GridPruning ... 4 (adaptive)
Weight generation scheme         WeightScheme... Becke
Basis function cutoff            BFCut       ... 1.0000e-10
Integration weight cutoff        WCut        ... 1.0000e-14
Angular grids for H and He will be reduced by one unit
Partially contracted basis set               ... on
Rotationally invariant grid construction     ... off

Total number of grid points                  ...     1070
Total number of batches                      ...       20
Average number of points per batch           ...       53
Average number of grid points per atom       ...      268

Memory available               ... 1014.6 MB
Memory needed per perturbation ...   0.4 MB
Perturbations treated per batch... 3
Number of batches              ... 1
     CP-SCF ITERATION   0:   1.0682e+01 (   0.1 sec   0/  3 done)
     CP-SCF ITERATION   1:   8.4345e-02 (   0.1 sec   0/  3 done)
     CP-SCF ITERATION   2:   3.4236e-03 (   0.1 sec   0/  3 done)
     CP-SCF ITERATION   3:   3.1818e-04 (   0.1 sec   3/  3 done)
                    *** THE CP-SCF HAS CONVERGED ***

Forming final perturbed densities           ... done
Transforming perturbed density to AO basis  ... done

Magnetic field perturbation calculated in  1.277 sec
GIAO: Diamagnetic terms      (analytic)     (SHARK) ... done
GIAO: 1el-Paramagnetic terms (analytic)     (SHARK) ... done

-------------------
ELECTRONIC G-MATRIX
-------------------

 The g-matrix: 
              2.0029159   -0.0000089    0.0000126
             -0.0000046    2.0028978    0.0000621
              0.0000021    0.0000451    2.0022330

 gel          2.0023193    2.0023193    2.0023193
 gRMC        -0.0001267   -0.0001267   -0.0001267
 gDSO(tot)    0.0000343    0.0000709    0.0000711
 gPSO(tot)    0.0000017    0.0006363    0.0006547
             ----------   ----------   ----------
 g(tot)       2.0022286    2.0028998    2.0029183 iso=  2.0026822
 Delta-g     -0.0000907    0.0005805    0.0005991 iso=  0.0003630
 Orientation: 
  X          -0.0113695    0.3526039   -0.9357036
  Y          -0.0799645    0.9324465    0.3523481
  Z           0.9967329    0.0788291    0.0175943

Notes:  (1) The g-matrix conforms to the "BgS" spin Hamiltonian convention. 
        (2) The principal values are square roots of the eigenvalues of g*gT.
        (3) Orientations are eigenvectors of g*gT written as column vectors.
        (4) Individual contributions are projections of the full matrices onto the eigenvectors of g*gT.
        (5) Tensor is right-handed.


-----------------------------------------
ELECTRIC AND MAGNETIC HYPERFINE STRUCTURE
-----------------------------------------

 -----------------------------------------------------------
 Nucleus   1H : A:ISTP=    1 I=  0.5 P=533.5514 MHz/au**3
                Q:ISTP=    2 I=  1.0 Q=  0.0029 barn     
 -----------------------------------------------------------
 Solving for nuclear perturbation:
Forming RHS of the CP-SCF equations         ... 
Calc. nucleus orbit integrals (SHARK)       ... done

------------------------------------------------------------------------------
                           ORCA CP-SCF CALCULATION
------------------------------------------------------------------------------

Input orbitals are from        ... /home/rwth0701/scratch/cs681498/orcajob__30556517-DeV8/16348.gbw
Input Perturbation             ... /home/rwth0701/scratch/cs681498/orcajob__30556517-DeV8/16348.pin.tmp
Wavefunction output            ... /home/rwth0701/scratch/cs681498/orcajob__30556517-DeV8/16348.pout.tmp
Perturbation mode              ... Imaginary perturbation
Solver                         ... POPLE
Max. number of iterations      ... 64
Convergence tolerance          ... 1.000e-03
Integral handling              ... Direct
DFT GridXC                     ... 1
COSX GridX                     ... 1
COSX IntAccX                   ... 3.067
COSX Algorithm                 ... Auto
Number of perturbations        ... 3
Number of operators            ... 2
Orbital ranges used for CP-SCF:
 Operator 0:  Orbitals   0...  4  to   5... 72
 Operator 1:  Orbitals   0...  3  to   4... 72
Variables per perturbation     ... 616
DFT calculation                         ... on
XC functional terms                     ... off
Hybrid DFT                              ... on
   Exchange mixing (SCF)                ...  0.200
   Exchange mixing (CP-SCF)             ...  0.200
   GGA exch. scaling(SCF)               ...  0.720
   GGA exch. scaling (CP-SCF)           ...  0.720
   GGA corr. scaling (SCF)              ...  0.810
   GGA corr. scaling (CP-SCF)           ...  0.810

CP-SCF GRID
-----------

General Integration Accuracy     IntAcc      ... 3.467
Radial Grid Type                 RadialGrid  ... OptM3 with GC (2021)
Angular Grid (max. ang.)         AngularGrid ... 1 (Lebedev-50)
Angular grid pruning method      GridPruning ... 4 (adaptive)
Weight generation scheme         WeightScheme... Becke
Basis function cutoff            BFCut       ... 1.0000e-10
Integration weight cutoff        WCut        ... 1.0000e-14
Angular grids for H and He will be reduced by one unit
Partially contracted basis set               ... off
Rotationally invariant grid construction     ... off

Total number of grid points                  ...     2336
Total number of batches                      ...       38
Average number of points per batch           ...       61
Average number of grid points per atom       ...      584

CP-SCF GRIDX
------------

General Integration Accuracy     IntAcc      ... 3.067
Radial Grid Type                 RadialGrid  ... OptM3 with GC (2021)
Angular Grid (max. ang.)         AngularGrid ... 1 (Lebedev-50)
Angular grid pruning method      GridPruning ... 4 (adaptive)
Weight generation scheme         WeightScheme... Becke
Basis function cutoff            BFCut       ... 1.0000e-10
Integration weight cutoff        WCut        ... 1.0000e-14
Angular grids for H and He will be reduced by one unit
Partially contracted basis set               ... on
Rotationally invariant grid construction     ... off

Total number of grid points                  ...     1070
Total number of batches                      ...       20
Average number of points per batch           ...       53
Average number of grid points per atom       ...      268

Memory available               ... 968.0 MB
Memory needed per perturbation ...   0.4 MB
Perturbations treated per batch... 3
Number of batches              ... 1
     CP-SCF ITERATION   0:   7.3417e-02 (   0.1 sec   0/  3 done)
     CP-SCF ITERATION   1:   2.7312e-03 (   0.1 sec   1/  3 done)
     CP-SCF ITERATION   2:   1.8639e-04 (   0.1 sec   3/  3 done)
                    *** THE CP-SCF HAS CONVERGED ***

Forming final perturbed densities           ... done
Transforming perturbed density to AO basis  ... done

 Raw HFC matrix (all values in MHz): 
 -----------------------------------
               -28.2334             -10.4560               0.1293
               -10.4575            -105.5651              -4.1073
                 0.1292              -4.1073             -64.1288

 A(FC)         -65.9903             -65.9903             -65.9903
 A(SD)          39.1451               2.2306             -41.3757
 A(ORB+DIA)      0.0129              -0.0007               0.0313    A(PC) =   0.0145
 A(ORB)          0.0077               0.0005               0.0298    A(PC) =   0.0127
 A(DIA)          0.0052              -0.0012               0.0015    A(PC) =   0.0018
             ----------           ----------           ----------
 A(Tot)        -26.8324             -63.7604            -107.3347    A(iso)=  -65.9758
 Orientation: 
  X           0.9910122            0.0301858            0.1303216
  Y          -0.1325508            0.0902546            0.9870585
  Z           0.0180331           -0.9954612            0.0934445

Notes:  (1) The A matrix conforms to the "SAI" spin Hamiltonian convention.
        (2) Tensor is right-handed.

 -----------------------------------------------------------
 Nucleus   2H : A:ISTP=    1 I=  0.5 P=533.5514 MHz/au**3
                Q:ISTP=    2 I=  1.0 Q=  0.0029 barn     
 -----------------------------------------------------------
 Solving for nuclear perturbation:
Forming RHS of the CP-SCF equations         ... 
Calc. nucleus orbit integrals (SHARK)       ... done

------------------------------------------------------------------------------
                           ORCA CP-SCF CALCULATION
------------------------------------------------------------------------------

Input orbitals are from        ... /home/rwth0701/scratch/cs681498/orcajob__30556517-DeV8/16348.gbw
Input Perturbation             ... /home/rwth0701/scratch/cs681498/orcajob__30556517-DeV8/16348.pin.tmp
Wavefunction output            ... /home/rwth0701/scratch/cs681498/orcajob__30556517-DeV8/16348.pout.tmp
Perturbation mode              ... Imaginary perturbation
Solver                         ... POPLE
Max. number of iterations      ... 64
Convergence tolerance          ... 1.000e-03
Integral handling              ... Direct
DFT GridXC                     ... 1
COSX GridX                     ... 1
COSX IntAccX                   ... 3.067
COSX Algorithm                 ... Auto
Number of perturbations        ... 3
Number of operators            ... 2
Orbital ranges used for CP-SCF:
 Operator 0:  Orbitals   0...  4  to   5... 72
 Operator 1:  Orbitals   0...  3  to   4... 72
Variables per perturbation     ... 616
DFT calculation                         ... on
XC functional terms                     ... off
Hybrid DFT                              ... on
   Exchange mixing (SCF)                ...  0.200
   Exchange mixing (CP-SCF)             ...  0.200
   GGA exch. scaling(SCF)               ...  0.720
   GGA exch. scaling (CP-SCF)           ...  0.720
   GGA corr. scaling (SCF)              ...  0.810
   GGA corr. scaling (CP-SCF)           ...  0.810

CP-SCF GRID
-----------

General Integration Accuracy     IntAcc      ... 3.467
Radial Grid Type                 RadialGrid  ... OptM3 with GC (2021)
Angular Grid (max. ang.)         AngularGrid ... 1 (Lebedev-50)
Angular grid pruning method      GridPruning ... 4 (adaptive)
Weight generation scheme         WeightScheme... Becke
Basis function cutoff            BFCut       ... 1.0000e-10
Integration weight cutoff        WCut        ... 1.0000e-14
Angular grids for H and He will be reduced by one unit
Partially contracted basis set               ... off
Rotationally invariant grid construction     ... off

Total number of grid points                  ...     2336
Total number of batches                      ...       38
Average number of points per batch           ...       61
Average number of grid points per atom       ...      584

CP-SCF GRIDX
------------

General Integration Accuracy     IntAcc      ... 3.067
Radial Grid Type                 RadialGrid  ... OptM3 with GC (2021)
Angular Grid (max. ang.)         AngularGrid ... 1 (Lebedev-50)
Angular grid pruning method      GridPruning ... 4 (adaptive)
Weight generation scheme         WeightScheme... Becke
Basis function cutoff            BFCut       ... 1.0000e-10
Integration weight cutoff        WCut        ... 1.0000e-14
Angular grids for H and He will be reduced by one unit
Partially contracted basis set               ... on
Rotationally invariant grid construction     ... off

Total number of grid points                  ...     1070
Total number of batches                      ...       20
Average number of points per batch           ...       53
Average number of grid points per atom       ...      268

Memory available               ... 967.8 MB
Memory needed per perturbation ...   0.4 MB
Perturbations treated per batch... 3
Number of batches              ... 1
     CP-SCF ITERATION   0:   5.5230e-02 (   0.1 sec   0/  3 done)
     CP-SCF ITERATION   1:   1.9510e-03 (   0.1 sec   1/  3 done)
     CP-SCF ITERATION   2:   1.4595e-04 (   0.1 sec   3/  3 done)
                    *** THE CP-SCF HAS CONVERGED ***

Forming final perturbed densities           ... done
Transforming perturbed density to AO basis  ... done

 Raw HFC matrix (all values in MHz): 
 -----------------------------------
               -91.9702             -24.1909              -2.8960
               -24.1907             -37.2436               2.6030
                -2.8960               2.6031             -65.4822

 A(FC)         -64.9131             -64.9131             -64.9131
 A(SD)          37.1326              -0.7963             -36.3363
 A(ORB+DIA)      0.0146              -0.0008               0.0296    A(PC) =   0.0145
 A(ORB)          0.0102               0.0003               0.0283    A(PC) =   0.0129
 A(DIA)          0.0044              -0.0011               0.0012    A(PC) =   0.0015
             ----------           ----------           ----------
 A(Tot)        -27.7660             -65.7102            -101.2198    A(iso)=  -64.8987
 Orientation: 
  X          -0.3547154           -0.0145291            0.9348614
  Y           0.9304907           -0.1032895            0.3514518
  Z           0.0914551            0.9945452            0.0501575

Notes:  (1) The A matrix conforms to the "SAI" spin Hamiltonian convention.
        (2) Tensor is right-handed.

 -----------------------------------------------------------
 Nucleus   3H : A:ISTP=    1 I=  0.5 P=533.5514 MHz/au**3
                Q:ISTP=    2 I=  1.0 Q=  0.0029 barn     
 -----------------------------------------------------------
 Solving for nuclear perturbation:
Forming RHS of the CP-SCF equations         ... 
Calc. nucleus orbit integrals (SHARK)       ... done

------------------------------------------------------------------------------
                           ORCA CP-SCF CALCULATION
------------------------------------------------------------------------------

Input orbitals are from        ... /home/rwth0701/scratch/cs681498/orcajob__30556517-DeV8/16348.gbw
Input Perturbation             ... /home/rwth0701/scratch/cs681498/orcajob__30556517-DeV8/16348.pin.tmp
Wavefunction output            ... /home/rwth0701/scratch/cs681498/orcajob__30556517-DeV8/16348.pout.tmp
Perturbation mode              ... Imaginary perturbation
Solver                         ... POPLE
Max. number of iterations      ... 64
Convergence tolerance          ... 1.000e-03
Integral handling              ... Direct
DFT GridXC                     ... 1
COSX GridX                     ... 1
COSX IntAccX                   ... 3.067
COSX Algorithm                 ... Auto
Number of perturbations        ... 3
Number of operators            ... 2
Orbital ranges used for CP-SCF:
 Operator 0:  Orbitals   0...  4  to   5... 72
 Operator 1:  Orbitals   0...  3  to   4... 72
Variables per perturbation     ... 616
DFT calculation                         ... on
XC functional terms                     ... off
Hybrid DFT                              ... on
   Exchange mixing (SCF)                ...  0.200
   Exchange mixing (CP-SCF)             ...  0.200
   GGA exch. scaling(SCF)               ...  0.720
   GGA exch. scaling (CP-SCF)           ...  0.720
   GGA corr. scaling (SCF)              ...  0.810
   GGA corr. scaling (CP-SCF)           ...  0.810

CP-SCF GRID
-----------

General Integration Accuracy     IntAcc      ... 3.467
Radial Grid Type                 RadialGrid  ... OptM3 with GC (2021)
Angular Grid (max. ang.)         AngularGrid ... 1 (Lebedev-50)
Angular grid pruning method      GridPruning ... 4 (adaptive)
Weight generation scheme         WeightScheme... Becke
Basis function cutoff            BFCut       ... 1.0000e-10
Integration weight cutoff        WCut        ... 1.0000e-14
Angular grids for H and He will be reduced by one unit
Partially contracted basis set               ... off
Rotationally invariant grid construction     ... off

Total number of grid points                  ...     2336
Total number of batches                      ...       38
Average number of points per batch           ...       61
Average number of grid points per atom       ...      584

CP-SCF GRIDX
------------

General Integration Accuracy     IntAcc      ... 3.067
Radial Grid Type                 RadialGrid  ... OptM3 with GC (2021)
Angular Grid (max. ang.)         AngularGrid ... 1 (Lebedev-50)
Angular grid pruning method      GridPruning ... 4 (adaptive)
Weight generation scheme         WeightScheme... Becke
Basis function cutoff            BFCut       ... 1.0000e-10
Integration weight cutoff        WCut        ... 1.0000e-14
Angular grids for H and He will be reduced by one unit
Partially contracted basis set               ... on
Rotationally invariant grid construction     ... off

Total number of grid points                  ...     1070
Total number of batches                      ...       20
Average number of points per batch           ...       53
Average number of grid points per atom       ...      268

Memory available               ... 967.7 MB
Memory needed per perturbation ...   0.4 MB
Perturbations treated per batch... 3
Number of batches              ... 1
     CP-SCF ITERATION   0:   6.8227e-02 (   0.1 sec   0/  3 done)
     CP-SCF ITERATION   1:   2.8860e-03 (   0.1 sec   1/  3 done)
     CP-SCF ITERATION   2:   2.5039e-04 (   0.1 sec   3/  3 done)
                    *** THE CP-SCF HAS CONVERGED ***

Forming final perturbed densities           ... done
Transforming perturbed density to AO basis  ... done

 Raw HFC matrix (all values in MHz): 
 -----------------------------------
               -65.0698              41.3019               3.4093
                41.3025             -66.8323              -0.0778
                 3.4093              -0.0778             -60.7827

 A(FC)         -64.2432             -64.2432             -64.2432
 A(SD)          39.7478               3.4324             -43.1802
 A(ORB+DIA)      0.0126              -0.0006               0.0328    A(PC) =   0.0149
 A(ORB)          0.0071               0.0006               0.0311    A(PC) =   0.0129
 A(DIA)          0.0055              -0.0012               0.0016    A(PC) =   0.0020
             ----------           ----------           ----------
 A(Tot)        -24.4829             -60.8114            -107.3906    A(iso)=  -64.2283
 Orientation: 
  X           0.7144210            0.0102681           -0.6996407
  Y           0.6966337            0.0833126            0.7125732
  Z           0.0656056           -0.9964706            0.0523672

Notes:  (1) The A matrix conforms to the "SAI" spin Hamiltonian convention.
        (2) Tensor is right-handed.

 -----------------------------------------------------------
 Nucleus   0C : A:ISTP=   13 I=  0.5 P=134.1903 MHz/au**3
                Q:ISTP=   13 I=  0.5 Q=  0.0000 barn     
 -----------------------------------------------------------
 Solving for nuclear perturbation:
Forming RHS of the CP-SCF equations         ... 
Calc. nucleus orbit integrals (SHARK)       ... done

------------------------------------------------------------------------------
                           ORCA CP-SCF CALCULATION
------------------------------------------------------------------------------

Input orbitals are from        ... /home/rwth0701/scratch/cs681498/orcajob__30556517-DeV8/16348.gbw
Input Perturbation             ... /home/rwth0701/scratch/cs681498/orcajob__30556517-DeV8/16348.pin.tmp
Wavefunction output            ... /home/rwth0701/scratch/cs681498/orcajob__30556517-DeV8/16348.pout.tmp
Perturbation mode              ... Imaginary perturbation
Solver                         ... POPLE
Max. number of iterations      ... 64
Convergence tolerance          ... 1.000e-03
Integral handling              ... Direct
DFT GridXC                     ... 1
COSX GridX                     ... 1
COSX IntAccX                   ... 3.067
COSX Algorithm                 ... Auto
Number of perturbations        ... 3
Number of operators            ... 2
Orbital ranges used for CP-SCF:
 Operator 0:  Orbitals   0...  4  to   5... 72
 Operator 1:  Orbitals   0...  3  to   4... 72
Variables per perturbation     ... 616
DFT calculation                         ... on
XC functional terms                     ... off
Hybrid DFT                              ... on
   Exchange mixing (SCF)                ...  0.200
   Exchange mixing (CP-SCF)             ...  0.200
   GGA exch. scaling(SCF)               ...  0.720
   GGA exch. scaling (CP-SCF)           ...  0.720
   GGA corr. scaling (SCF)              ...  0.810
   GGA corr. scaling (CP-SCF)           ...  0.810

CP-SCF GRID
-----------

General Integration Accuracy     IntAcc      ... 3.467
Radial Grid Type                 RadialGrid  ... OptM3 with GC (2021)
Angular Grid (max. ang.)         AngularGrid ... 1 (Lebedev-50)
Angular grid pruning method      GridPruning ... 4 (adaptive)
Weight generation scheme         WeightScheme... Becke
Basis function cutoff            BFCut       ... 1.0000e-10
Integration weight cutoff        WCut        ... 1.0000e-14
Angular grids for H and He will be reduced by one unit
Partially contracted basis set               ... off
Rotationally invariant grid construction     ... off

Total number of grid points                  ...     2336
Total number of batches                      ...       38
Average number of points per batch           ...       61
Average number of grid points per atom       ...      584

CP-SCF GRIDX
------------

General Integration Accuracy     IntAcc      ... 3.067
Radial Grid Type                 RadialGrid  ... OptM3 with GC (2021)
Angular Grid (max. ang.)         AngularGrid ... 1 (Lebedev-50)
Angular grid pruning method      GridPruning ... 4 (adaptive)
Weight generation scheme         WeightScheme... Becke
Basis function cutoff            BFCut       ... 1.0000e-10
Integration weight cutoff        WCut        ... 1.0000e-14
Angular grids for H and He will be reduced by one unit
Partially contracted basis set               ... on
Rotationally invariant grid construction     ... off

Total number of grid points                  ...     1070
Total number of batches                      ...       20
Average number of points per batch           ...       53
Average number of grid points per atom       ...      268

Memory available               ... 967.6 MB
Memory needed per perturbation ...   0.4 MB
Perturbations treated per batch... 3
Number of batches              ... 1
     CP-SCF ITERATION   0:   1.1594e+00 (   0.1 sec   0/  3 done)
     CP-SCF ITERATION   1:   4.3302e-02 (   0.1 sec   0/  3 done)
     CP-SCF ITERATION   2:   3.1470e-03 (   0.1 sec   1/  3 done)
     CP-SCF ITERATION   3:   1.4099e-04 (   0.1 sec   3/  3 done)
                    *** THE CP-SCF HAS CONVERGED ***

Forming final perturbed densities           ... done
Transforming perturbed density to AO basis  ... done

 Raw HFC matrix (all values in MHz): 
 -----------------------------------
                -1.5535               0.0555              -4.5323
                 0.0555               1.4058             -22.0813
                -4.5323             -22.0813             237.9928

 A(FC)          79.3953              79.3953              79.3953
 A(SD)         -79.7553             -80.9821             160.7373
 A(ORB+DIA)     -0.1601              -0.1686              -0.0121    A(PC) =  -0.1136
 A(ORB)         -0.1605              -0.1691              -0.0120    A(PC) =  -0.1139
 A(DIA)          0.0004               0.0004              -0.0001    A(PC) =   0.0002
             ----------           ----------           ----------
 A(Tot)         -0.5200              -1.7554             240.1205    A(iso)=   79.2817
 Orientation: 
  X          -0.3081799            0.9511444            0.0186921
  Y           0.9477970            0.3052854            0.0920959
  Z           0.0818901            0.0460984           -0.9955747

Notes:  (1) The A matrix conforms to the "SAI" spin Hamiltonian convention.
        (2) Tensor is right-handed.


--------------------------------------------------------------------------------
----------------------------------------------------------------------------
                           ORCA EULER ANGLE PROGRAM
----------------------------------------------------------------------------

Only g-tensor available        -->  using g-tensor as reference tensor

Reference tensor               ...  g

g-tensor ordering              ...  |g_min> --> |gx>
                                    |g_mid> --> |gy>
                                    |g_max> --> |gz>

A- and EFG-tensor ordering     ...  the axes |Ax>, |Qx>, |Ay>, etc. are assigned
                                    such that the Euler rotation is minimal. You
                                    can find the respective eigenvalues as Ax,
                                    EFGx, Ay, etc. in the tables below.
                                    The relation of |Ax>, |Ay>,  etc. to Amin, Amid, etc.
                                    (as printed in the ORCA EPR/NMR CALCULATION Output)
                                    is obtained in the detailed printout.

Euler rotation around          ...  z - y - z
   First rotation              -->  by alpha around z
   Second rotation             -->  by beta around y'
   Third rotation              -->  by gamma around z''
   Positive / Negative angle   -->  clockwise / counterclockwise rotation

Plot EFG-tensors                    (-)
Plot HFC-tensors                    (-)
Detailed Printout                   (-)

-------------------------------------------------------------------------
          Euler rotation of hyperfine tensor to g-tensor
-------------------------------------------------------------------------

-------------------------------------------------------------------
 Atom  |   Alpha    Beta    Gamma   |   Ax       Ay       Az 
       |          [degrees]         |           [MHz]         
-------------------------------------------------------------------
  1H       86.5     13.2    -85.6     -63.76  -107.33   -26.83
  2H       90.5     41.4    -89.0     -65.71   -27.77  -101.22
  3H      -90.3     25.0     90.4     -60.81   -24.48  -107.39
  0C       89.8     38.6    -89.0     240.12    -0.52    -1.76
-------------------------------------------------------------------


Maximum memory used throughout the entire EPRNMR-calculation: 67.6 MB

Timings for individual modules:

Sum of individual times         ...       22.502 sec (=   0.375 min)
GTO integral calculation        ...        4.215 sec (=   0.070 min)  18.7 %
Spin-Orbit-Coupling Matrices    ...        2.740 sec (=   0.046 min)  12.2 %
SCF iterations                  ...        9.358 sec (=   0.156 min)  41.6 %
EPR/NMR calculation             ...        6.189 sec (=   0.103 min)  27.5 %
                             ****ORCA TERMINATED NORMALLY****
TOTAL RUN TIME: 0 days 0 hours 0 minutes 24 seconds 931 msec
