Job execution start: Mon Oct 24 16:43:21 CEST 2022
Shared library path: /home/cs681498/orca:/opt/MPI/openmpi-4.1.1/linux/gcc_4.8.5/lib:/opt/MPI/openmpi-4.1.1/linux/gcc_4.8.5/lib/lib32
Slurm Job ID is: 30556316
Slurm Job name is: 8647
ncm0304

                                 *****************
                                 * O   R   C   A *
                                 *****************

                                            #,                                       
                                            ###                                      
                                            ####                                     
                                            #####                                    
                                            ######                                   
                                           ########,                                 
                                     ,,################,,,,,                         
                               ,,#################################,,                 
                          ,,##########################################,,             
                       ,#########################################, ''#####,          
                    ,#############################################,,   '####,        
                  ,##################################################,,,,####,       
                ,###########''''           ''''###############################       
              ,#####''   ,,,,##########,,,,          '''####'''          '####       
            ,##' ,,,,###########################,,,                        '##       
           ' ,,###''''                  '''############,,,                           
         ,,##''                                '''############,,,,        ,,,,,,###''
      ,#''                                            '''#######################'''  
     '                                                          ''''####''''         
             ,#######,   #######,   ,#######,      ##                                
            ,#'     '#,  ##    ##  ,#'     '#,    #''#        ######   ,####,        
            ##       ##  ##   ,#'  ##            #'  '#       #        #'  '#        
            ##       ##  #######   ##           ,######,      #####,   #    #        
            '#,     ,#'  ##    ##  '#,     ,#' ,#      #,         ##   #,  ,#        
             '#######'   ##     ##  '#######'  #'      '#     #####' # '####'        



                  #######################################################
                  #                        -***-                        #
                  #          Department of theory and spectroscopy      #
                  #    Directorship and core code : Frank Neese         #
                  #        Max Planck Institute fuer Kohlenforschung    #
                  #                Kaiser Wilhelm Platz 1               #
                  #                 D-45470 Muelheim/Ruhr               #
                  #                      Germany                        #
                  #                                                     #
                  #                  All rights reserved                #
                  #                        -***-                        #
                  #######################################################


                         Program Version 5.0.3 -  RELEASE  -


 With contributions from (in alphabetic order):
   Daniel Aravena         : Magnetic Suceptibility
   Michael Atanasov       : Ab Initio Ligand Field Theory (pilot matlab implementation)
   Alexander A. Auer      : GIAO ZORA, VPT2 properties, NMR spectrum
   Ute Becker             : Parallelization
   Giovanni Bistoni       : ED, misc. LED, open-shell LED, HFLD
   Martin Brehm           : Molecular dynamics
   Dmytro Bykov           : SCF Hessian
   Vijay G. Chilkuri      : MRCI spin determinant printing, contributions to CSF-ICE
   Dipayan Datta          : RHF DLPNO-CCSD density
   Achintya Kumar Dutta   : EOM-CC, STEOM-CC
   Dmitry Ganyushin       : Spin-Orbit,Spin-Spin,Magnetic field MRCI
   Miquel Garcia          : C-PCM and meta-GGA Hessian, CC/C-PCM, Gaussian charge scheme
   Yang Guo               : DLPNO-NEVPT2, F12-NEVPT2, CIM, IAO-localization
   Andreas Hansen         : Spin unrestricted coupled pair/coupled cluster methods
   Benjamin Helmich-Paris : MC-RPA, TRAH-SCF, COSX integrals
   Lee Huntington         : MR-EOM, pCC
   Robert Izsak           : Overlap fitted RIJCOSX, COSX-SCS-MP3, EOM
   Marcus Kettner         : VPT2
   Christian Kollmar      : KDIIS, OOCD, Brueckner-CCSD(T), CCSD density, CASPT2, CASPT2-K
   Simone Kossmann        : Meta GGA functionals, TD-DFT gradient, OOMP2, MP2 Hessian
   Martin Krupicka        : Initial AUTO-CI
   Lucas Lang             : DCDCAS
   Marvin Lechner         : AUTO-CI (C++ implementation), FIC-MRCC
   Dagmar Lenk            : GEPOL surface, SMD
   Dimitrios Liakos       : Extrapolation schemes; Compound Job, initial MDCI parallelization
   Dimitrios Manganas     : Further ROCIS development; embedding schemes
   Dimitrios Pantazis     : SARC Basis sets
   Anastasios Papadopoulos: AUTO-CI, single reference methods and gradients
   Taras Petrenko         : DFT Hessian,TD-DFT gradient, ASA, ECA, R-Raman, ABS, FL, XAS/XES, NRVS
   Peter Pinski           : DLPNO-MP2, DLPNO-MP2 Gradient
   Christoph Reimann      : Effective Core Potentials
   Marius Retegan         : Local ZFS, SOC
   Christoph Riplinger    : Optimizer, TS searches, QM/MM, DLPNO-CCSD(T), (RO)-DLPNO pert. Triples
   Tobias Risthaus        : Range-separated hybrids, TD-DFT gradient, RPA, STAB
   Michael Roemelt        : Original ROCIS implementation
   Masaaki Saitow         : Open-shell DLPNO-CCSD energy and density
   Barbara Sandhoefer     : DKH picture change effects
   Avijit Sen             : IP-ROCIS
   Kantharuban Sivalingam : CASSCF convergence, NEVPT2, FIC-MRCI
   Bernardo de Souza      : ESD, SOC TD-DFT
   Georgi Stoychev        : AutoAux, RI-MP2 NMR, DLPNO-MP2 response
   Willem Van den Heuvel  : Paramagnetic NMR
   Boris Wezisla          : Elementary symmetry handling
   Frank Wennmohs         : Technical directorship


 We gratefully acknowledge several colleagues who have allowed us to
 interface, adapt or use parts of their codes:
   Stefan Grimme, W. Hujo, H. Kruse, P. Pracht,  : VdW corrections, initial TS optimization,
                  C. Bannwarth, S. Ehlert          DFT functionals, gCP, sTDA/sTD-DF
   Ed Valeev, F. Pavosevic, A. Kumar             : LibInt (2-el integral package), F12 methods
   Garnet Chan, S. Sharma, J. Yang, R. Olivares  : DMRG
   Ulf Ekstrom                                   : XCFun DFT Library
   Mihaly Kallay                                 : mrcc  (arbitrary order and MRCC methods)
   Jiri Pittner, Ondrej Demel                    : Mk-CCSD
   Frank Weinhold                                : gennbo (NPA and NBO analysis)
   Christopher J. Cramer and Donald G. Truhlar   : smd solvation model
   Lars Goerigk                                  : TD-DFT with DH, B97 family of functionals
   V. Asgeirsson, H. Jonsson                     : NEB implementation
   FAccTs GmbH                                   : IRC, NEB, NEB-TS, DLPNO-Multilevel, CI-OPT
                                                   MM, QMMM, 2- and 3-layer-ONIOM, Crystal-QMMM,
                                                   LR-CPCM, SF, NACMEs, symmetry and pop. for TD-DFT,
                                                   nearIR, NL-DFT gradient (VV10), updates on ESD,
                                                   ML-optimized integration grids
   S Lehtola, MJT Oliveira, MAL Marques          : LibXC Library
   Liviu Ungur et al                             : ANISO software


 Your calculation uses the libint2 library for the computation of 2-el integrals
 For citations please refer to: http://libint.valeyev.net

 Your ORCA version has been built with support for libXC version: 5.1.0
 For citations please refer to: https://tddft.org/programs/libxc/

 This ORCA versions uses:
   CBLAS   interface :  Fast vector & matrix operations
   LAPACKE interface :  Fast linear algebra routines
   SCALAPACK package :  Parallel linear algebra routines
   Shared memory     :  Shared parallel matrices
   BLAS/LAPACK       :  OpenBLAS 0.3.15  USE64BITINT DYNAMIC_ARCH NO_AFFINITY SkylakeX SINGLE_THREADED
        Core in use  :  SkylakeX
   Copyright (c) 2011-2014, The OpenBLAS Project


================================================================================

----- Orbital basis set information -----
Your calculation utilizes the basis: EPR-III
   V. Barone, in Recent Advances in Density Functional Methods, Part 1 (ed. D. P. Chong), World Scientific, Singapore, 1995, p. 287.
   N. Rega, M. Cossi and V. Barone, J. Chem. Phys. 105, 11060 (1996).

----- AuxJ basis set information -----
Your calculation utilizes the AutoAux generation procedure.
  G. L. Stoychev, A. A. Auer, F. Neese, J. Chem. Theory Comput. 13, 554 (2017)

----- AuxC basis set information -----
Your calculation utilizes the AutoAux generation procedure.
  G. L. Stoychev, A. A. Auer, F. Neese, J. Chem. Theory Comput. 13, 554 (2017)

----- AuxJK basis set information -----
Your calculation utilizes the AutoAux generation procedure.
  G. L. Stoychev, A. A. Auer, F. Neese, J. Chem. Theory Comput. 13, 554 (2017)

================================================================================
                                        WARNINGS
                       Please study these warnings very carefully!
================================================================================


WARNING: your system is open-shell and RHF/RKS was chosen
  ===> : WILL SWITCH to UHF/UKS


INFO   : the flag for use of the SHARK integral package has been found!

================================================================================
                                       INPUT FILE
================================================================================
NAME = /home/rwth0701/scratch/cs681498/orcajob__30556316-dMnP/8647.inp
|  1> !B3LYP EPR-III Autoaux
|  2> !PAL4
|  3> 
|  4> * xyz 0 2
|  5>  C    -28.4703074676    -47.0589888527    -17.7288301192
|  6>  H    -27.6143091119    -47.8253420927    -17.5987452692
|  7>  H    -28.1976359279    -46.0617029513    -17.7320895981
|  8>  H    -29.4581480237    -47.5050758940    -17.9043189592
|  9> *
| 10> 
| 11> %EPRNMR
| 12>         GTENSOR   TRUE
| 13>         NUCLEI    = ALL H {AISO, ADIP, AORB}
| 14>         NUCLEI    = ALL C {AISO, ADIP, AORB}
| 15> END
| 16> 
| 17> 
| 18>                          ****END OF INPUT****
================================================================================

                       ****************************
                       * Single Point Calculation *
                       ****************************

---------------------------------
CARTESIAN COORDINATES (ANGSTROEM)
---------------------------------
  C    -28.470307  -47.058989  -17.728830
  H    -27.614309  -47.825342  -17.598745
  H    -28.197636  -46.061703  -17.732090
  H    -29.458148  -47.505076  -17.904319

----------------------------
CARTESIAN COORDINATES (A.U.)
----------------------------
  NO LB      ZA    FRAG     MASS         X           Y           Z
   0 C     6.0000    0    12.011  -53.801084  -88.928601  -33.502634
   1 H     1.0000    0     1.008  -52.183482  -90.376799  -33.256809
   2 H     1.0000    0     1.008  -53.285810  -87.044004  -33.508793
   3 H     1.0000    0     1.008  -55.667832  -89.771583  -33.834259

--------------------------------
INTERNAL COORDINATES (ANGSTROEM)
--------------------------------
 C      0   0   0     0.000000000000     0.00000000     0.00000000
 H      1   0   0     1.156266639499     0.00000000     0.00000000
 H      1   2   0     1.033895334111   116.38651219     0.00000000
 H      1   2   3     1.098006805833   114.50338499   175.82687446

---------------------------
INTERNAL COORDINATES (A.U.)
---------------------------
 C      0   0   0     0.000000000000     0.00000000     0.00000000
 H      1   0   0     2.185027286443     0.00000000     0.00000000
 H      1   2   0     1.953779032609   116.38651219     0.00000000
 H      1   2   3     2.074932156207   114.50338499   175.82687446

---------------------
BASIS SET INFORMATION
---------------------
There are 2 groups of distinct atoms

 Group   1 Type C   : 12s8p2d1f contracted to 8s5p2d1f pattern {51111111/41111/11/1}
 Group   2 Type H   : 7s2p contracted to 5s2p pattern {31111/11}

Atom   0C    basis set group =>   1
Atom   1H    basis set group =>   2
Atom   2H    basis set group =>   2
Atom   3H    basis set group =>   2
---------------------------------
AUXILIARY/J BASIS SET INFORMATION
---------------------------------
There are 2 groups of distinct atoms

 Group   1 Type C   : 20s17p16d8f3g contracted to 20s17p16d8f3g pattern {11111111111111111111/11111111111111111/1111111111111111/11111111/111}
 Group   2 Type H   : 17s7p3d contracted to 17s7p3d pattern {11111111111111111/1111111/111}

Atom   0C    basis set group =>   1
Atom   1H    basis set group =>   2
Atom   2H    basis set group =>   2
Atom   3H    basis set group =>   2
---------------------------------
AUXILIARY/C BASIS SET INFORMATION
---------------------------------
There are 2 groups of distinct atoms

 Group   1 Type C   : 20s17p16d8f3g contracted to 20s17p16d8f3g pattern {11111111111111111111/11111111111111111/1111111111111111/11111111/111}
 Group   2 Type H   : 17s7p3d contracted to 17s7p3d pattern {11111111111111111/1111111/111}

Atom   0C    basis set group =>   1
Atom   1H    basis set group =>   2
Atom   2H    basis set group =>   2
Atom   3H    basis set group =>   2
----------------------------------
AUXILIARY/JK BASIS SET INFORMATION
----------------------------------
There are 2 groups of distinct atoms

 Group   1 Type C   : 20s17p16d8f3g contracted to 20s17p16d8f3g pattern {11111111111111111111/11111111111111111/1111111111111111/11111111/111}
 Group   2 Type H   : 17s7p3d contracted to 17s7p3d pattern {11111111111111111/1111111/111}

Atom   0C    basis set group =>   1
Atom   1H    basis set group =>   2
Atom   2H    basis set group =>   2
Atom   3H    basis set group =>   2


           ************************************************************
           *        Program running with 4 parallel MPI-processes     *
           *              working on a common directory               *
           ************************************************************
------------------------------------------------------------------------------
                           ORCA GTO INTEGRAL CALCULATION
                           -- RI-GTO INTEGRALS CHOSEN --
------------------------------------------------------------------------------
------------------------------------------------------------------------------
                   ___                                                        
                  /   \      - P O W E R E D   B Y -                         
                 /     \                                                     
                 |  |  |   _    _      __       _____    __    __             
                 |  |  |  | |  | |    /  \     |  _  \  |  |  /  |          
                  \  \/   | |  | |   /    \    | | | |  |  | /  /          
                 / \  \   | |__| |  /  /\  \   | |_| |  |  |/  /          
                |  |  |   |  __  | /  /__\  \  |    /   |      \           
                |  |  |   | |  | | |   __   |  |    \   |  |\   \          
                \     /   | |  | | |  |  |  |  | |\  \  |  | \   \       
                 \___/    |_|  |_| |__|  |__|  |_| \__\ |__|  \__/        
                                                                              
                      - O R C A' S   B I G   F R I E N D -                    
                                      &                                       
                       - I N T E G R A L  F E E D E R -                       
                                                                              
 v1 FN, 2020, v2 2021                                                         
------------------------------------------------------------------------------


Reading SHARK input file /home/rwth0701/scratch/cs681498/orcajob__30556316-dMnP/8647.SHARKINP.tmp ... ok
----------------------
SHARK INTEGRAL PACKAGE
----------------------

Number of atoms                             ...      4
Number of basis functions                   ...     73
Number of shells                            ...     37
Maximum angular momentum                    ...      3
Integral batch strategy                     ... SHARK/LIBINT Hybrid
RI-J (if used) integral strategy            ... SPLIT-RIJ (Revised 2003 algorithm where possible)
Printlevel                                  ...      1
Contraction scheme used                     ... SEGMENTED contraction
Coulomb Range Separation                    ... NOT USED
Exchange Range Separation                   ... NOT USED
Finite Nucleus Model                        ... NOT USED
Auxiliary Coulomb fitting basis             ... AVAILABLE
   # of basis functions in Aux-J            ...    393
   # of shells in Aux-J                     ...    145
   Maximum angular momentum in Aux-J        ...      4
Auxiliary J/K fitting basis                 ... AVAILABLE
   # of basis functions in Aux-JK           ...    393
   # of shells in Aux-JK                    ...    145
   Maximum angular momentum in Aux-JK       ...      4
Auxiliary Correlation fitting basis         ... AVAILABLE
   # of basis functions in Aux-C            ...    393
   # of shells in Aux-C                     ...    145
   Maximum angular momentum in Aux-C        ...      4
Auxiliary 'external' fitting basis          ... NOT available
Integral threshold                          ...     1.000000e-10
Primitive cut-off                           ...     1.000000e-11
Primitive pair pre-selection threshold      ...     1.000000e-11

Calculating pre-screening integrals         ... done (  0.0 sec) Dimension = 37
Organizing shell pair data                  ... done (  0.0 sec)
Shell pair information
Total number of shell pairs                 ...       703
Shell pairs after pre-screening             ...       688
Total number of primitive shell pairs       ...      1300
Primitive shell pairs kept                  ...      1183
          la=0 lb=0:    261 shell pairs
          la=1 lb=0:    253 shell pairs
          la=1 lb=1:     66 shell pairs
          la=2 lb=0:     46 shell pairs
          la=2 lb=1:     22 shell pairs
          la=2 lb=2:      3 shell pairs
          la=3 lb=0:     23 shell pairs
          la=3 lb=1:     11 shell pairs
          la=3 lb=2:      2 shell pairs
          la=3 lb=3:      1 shell pairs

Calculating one electron integrals          ... done (  0.0 sec)
Calculating RI/J V-Matrix + Cholesky decomp.... done (  0.2 sec)
Calculating RI/JK V-Matrix + Cholesky decomp... done (  0.1 sec)
Calculating RI/C V-Matrix + Cholesky decomp.... done (  0.1 sec)
Calculating Nuclear repulsion               ... done (  0.0 sec) ENN=      9.546837649123 Eh

SHARK setup successfully completed in   0.9 seconds

Maximum memory used throughout the entire GTOINT-calculation: 13.7 MB


           ************************************************************
           *        Program running with 4 parallel MPI-processes     *
           *              working on a common directory               *
           ************************************************************
-------------------------------------------------------------------------------
                                 ORCA SCF
-------------------------------------------------------------------------------

------------
SCF SETTINGS
------------
Hamiltonian:
 Density Functional     Method          .... DFT(GTOs)
 Exchange Functional    Exchange        .... B88
   X-Alpha parameter    XAlpha          ....  0.666667
   Becke's b parameter  XBeta           ....  0.004200
 Correlation Functional Correlation     .... LYP
 LDA part of GGA corr.  LDAOpt          .... VWN-5
 Gradients option       PostSCFGGA      .... off
 Hybrid DFT is turned on
   Fraction HF Exchange ScalHFX         ....  0.200000
   Scaling of DF-GGA-X  ScalDFX         ....  0.720000
   Scaling of DF-GGA-C  ScalDFC         ....  0.810000
   Scaling of DF-LDA-C  ScalLDAC        ....  1.000000
   Perturbative correction              ....  0.000000
   Density functional embedding theory  .... OFF
   NL short-range parameter             ....  4.800000
 RI-approximation to the Coulomb term is turned on
   Number of AuxJ basis functions       .... 393
   RIJ-COSX (HFX calculated with COS-X)).... on


General Settings:
 Integral files         IntName         .... /home/rwth0701/scratch/cs681498/orcajob__30556316-dMnP/8647
 Hartree-Fock type      HFTyp           .... UHF
 Total Charge           Charge          ....    0
 Multiplicity           Mult            ....    2
 Number of Electrons    NEL             ....    9
 Basis Dimension        Dim             ....   73
 Nuclear Repulsion      ENuc            ....      9.5468376491 Eh

Convergence Acceleration:
 DIIS                   CNVDIIS         .... on
   Start iteration      DIISMaxIt       ....    12
   Startup error        DIISStart       ....  0.200000
   # of expansion vecs  DIISMaxEq       ....     5
   Bias factor          DIISBfac        ....   1.050
   Max. coefficient     DIISMaxC        ....  10.000
 Trust-Rad. Augm. Hess. CNVTRAH         .... auto
   Auto Start mean grad. ratio tolernc. ....  1.125000
   Auto Start start iteration           ....    20
   Auto Start num. interpolation iter.  ....    10
   Max. Number of Micro iterations      ....    16
   Max. Number of Macro iterations      .... Maxiter - #DIIS iter
   Number of Davidson start vectors     ....     2
   Converg. threshold I  (grad. norm)   ....   5.000e-05
   Converg. threshold II (energy diff.) ....   1.000e-06
   Grad. Scal. Fac. for Micro threshold ....   0.100
   Minimum threshold for Micro iter.    ....   0.010
   NR start threshold (gradient norm)   ....   0.001
   Initial trust radius                 ....   0.400
   Minimum AH scaling param. (alpha)    ....   1.000
   Maximum AH scaling param. (alpha)    .... 1000.000
   Orbital update algorithm             .... Taylor
   White noise on init. David. guess    .... on
   Maximum white noise                  ....   0.010
   Quad. conv. algorithm                .... NR
 SOSCF                  CNVSOSCF        .... off
 Level Shifting         CNVShift        .... on
   Level shift para.    LevelShift      ....    0.2500
   Turn off err/grad.   ShiftErr        ....    0.0010
 Zerner damping         CNVZerner       .... off
 Static damping         CNVDamp         .... on
   Fraction old density DampFac         ....    0.7000
   Max. Damping (<1)    DampMax         ....    0.9800
   Min. Damping (>=0)   DampMin         ....    0.0000
   Turn off err/grad.   DampErr         ....    0.1000
 Fernandez-Rico         CNVRico         .... off

SCF Procedure:
 Maximum # iterations   MaxIter         ....   125
 SCF integral mode      SCFMode         .... Direct
   Integral package                     .... SHARK and LIBINT hybrid scheme
 Reset frequency        DirectResetFreq ....    20
 Integral Threshold     Thresh          ....  1.000e-10 Eh
 Primitive CutOff       TCut            ....  1.000e-11 Eh

Convergence Tolerance:
 Convergence Check Mode ConvCheckMode   .... Total+1el-Energy
 Convergence forced     ConvForced      .... 0
 Energy Change          TolE            ....  1.000e-06 Eh
 1-El. energy change                    ....  1.000e-03 Eh
 DIIS Error             TolErr          ....  1.000e-06


Diagonalization of the overlap matrix:
Smallest eigenvalue                        ... 1.644e-03
Time for diagonalization                   ...    0.001 sec
Threshold for overlap eigenvalues          ... 1.000e-08
Number of eigenvalues below threshold      ... 0
Time for construction of square roots      ...    0.008 sec
Total time needed                          ...    0.009 sec

Time for model grid setup =    0.065 sec

------------------------------
INITIAL GUESS: MODEL POTENTIAL
------------------------------
Loading Hartree-Fock densities                     ... done
Calculating cut-offs                               ... done
Initializing the effective Hamiltonian             ... done
Setting up the integral package (SHARK)            ... done
Starting the Coulomb interaction                   ... done (   0.1 sec)
Reading the grid                                   ... done
Mapping shells                                     ... done
Starting the XC term evaluation                    ... done (   0.0 sec)
  promolecular density results
     # of electrons  =      8.998747647
     EX              =     -5.964053647
     EC              =     -0.259801377
     EX+EC           =     -6.223855024
Transforming the Hamiltonian                       ... done (   0.0 sec)
Diagonalizing the Hamiltonian                      ... done (   0.0 sec)
Back transforming the eigenvectors                 ... done (   0.0 sec)
Now organizing SCF variables                       ... done
                      ------------------
                      INITIAL GUESS DONE (   0.2 sec)
                      ------------------
-------------------
DFT GRID GENERATION
-------------------

General Integration Accuracy     IntAcc      ... 4.388
Radial Grid Type                 RadialGrid  ... OptM3 with GC (2021)
Angular Grid (max. ang.)         AngularGrid ... 4 (Lebedev-302)
Angular grid pruning method      GridPruning ... 4 (adaptive)
Weight generation scheme         WeightScheme... Becke
Basis function cutoff            BFCut       ... 1.0000e-10
Integration weight cutoff        WCut        ... 1.0000e-14
Angular grids for H and He will be reduced by one unit
Partially contracted basis set               ... off
Rotationally invariant grid construction     ... off

Total number of grid points                  ...    17040
Total number of batches                      ...      268
Average number of points per batch           ...       63
Average number of grid points per atom       ...     4260
Time for grid setup =    0.222 sec

--------------------
COSX GRID GENERATION
--------------------

GRIDX 1
-------
General Integration Accuracy     IntAcc      ... 3.816
Radial Grid Type                 RadialGrid  ... OptM3 with GC (2021)
Angular Grid (max. ang.)         AngularGrid ... 1 (Lebedev-50)
Angular grid pruning method      GridPruning ... 4 (adaptive)
Weight generation scheme         WeightScheme... Becke
Basis function cutoff            BFCut       ... 1.0000e-10
Integration weight cutoff        WCut        ... 1.0000e-14
Angular grids for H and He will be reduced by one unit
Partially contracted basis set               ... on
Rotationally invariant grid construction     ... off

Total number of grid points                  ...     2149
Total number of batches                      ...       35
Average number of points per batch           ...       61
Average number of grid points per atom       ...      537
UseSFitting                                  ... on

GRIDX 2
-------
General Integration Accuracy     IntAcc      ... 4.020
Radial Grid Type                 RadialGrid  ... OptM3 with GC (2021)
Angular Grid (max. ang.)         AngularGrid ... 2 (Lebedev-110)
Angular grid pruning method      GridPruning ... 4 (adaptive)
Weight generation scheme         WeightScheme... Becke
Basis function cutoff            BFCut       ... 1.0000e-10
Integration weight cutoff        WCut        ... 1.0000e-14
Angular grids for H and He will be reduced by one unit
Partially contracted basis set               ... on
Rotationally invariant grid construction     ... off

Total number of grid points                  ...     5057
Total number of batches                      ...       81
Average number of points per batch           ...       62
Average number of grid points per atom       ...     1264
UseSFitting                                  ... on

GRIDX 3
-------
General Integration Accuracy     IntAcc      ... 4.338
Radial Grid Type                 RadialGrid  ... OptM3 with GC (2021)
Angular Grid (max. ang.)         AngularGrid ... 3 (Lebedev-194)
Angular grid pruning method      GridPruning ... 4 (adaptive)
Weight generation scheme         WeightScheme... Becke
Basis function cutoff            BFCut       ... 1.0000e-10
Integration weight cutoff        WCut        ... 1.0000e-14
Angular grids for H and He will be reduced by one unit
Partially contracted basis set               ... on
Rotationally invariant grid construction     ... off

Total number of grid points                  ...    11745
Total number of batches                      ...      185
Average number of points per batch           ...       63
Average number of grid points per atom       ...     2936
UseSFitting                                  ... on

Time for X-Grid setup             =    0.277 sec

--------------
SCF ITERATIONS
--------------
ITER       Energy         Delta-E        Max-DP      RMS-DP      [F,P]     Damp
               ***  Starting incremental Fock matrix formation  ***
  0    -39.7821048366   0.000000000000 0.01497640  0.00049276  0.0876470 0.7000
  1    -39.8002246360  -0.018119799387 0.00936318  0.00036816  0.0459343 0.7000
                               ***Turning on DIIS***
  2    -39.8082023868  -0.007977750827 0.01542370  0.00064132  0.0185220 0.0000
  3    -39.8190815457  -0.010879158859 0.00836987  0.00027832  0.0279371 0.0000
  4    -39.8224638036  -0.003382257940 0.00294615  0.00007830  0.0057589 0.0000
  5    -39.8226021562  -0.000138352548 0.00105388  0.00003309  0.0019095 0.0000
  6    -39.8226201676  -0.000018011422 0.00088353  0.00002594  0.0008109 0.0000
               *** Restarting incremental Fock matrix formation ***
                                   *** Resetting DIIS ***
  7    -39.8226221948  -0.000002027202 0.00010618  0.00000296  0.0000858 0.0000
                 **** Energy Check signals convergence ****

               *****************************************************
               *                     SUCCESS                       *
               *           SCF CONVERGED AFTER   8 CYCLES          *
               *****************************************************

Old exchange energy                            =     -1.237868245 Eh
New exchange energy                            =     -1.237870136 Eh
Exchange energy change after final integration =     -0.000001891 Eh
Total energy after final integration           =    -39.822624165 Eh
Final COS-X integration done in                =     0.177 sec

----------------
TOTAL SCF ENERGY
----------------

Total Energy       :          -39.82262416 Eh           -1083.62869 eV

Components:
Nuclear Repulsion  :            9.54683765 Eh             259.78266 eV
Electronic Energy  :          -49.36946181 Eh           -1343.41135 eV
One Electron Energy:          -71.40536902 Eh           -1943.03887 eV
Two Electron Energy:           22.03590721 Eh             599.62752 eV
Max COSX asymmetry :            0.00000004 Eh               0.00000 eV

Virial components:
Potential Energy   :          -79.39408653 Eh           -2160.42293 eV
Kinetic Energy     :           39.57146236 Eh            1076.79423 eV
Virial Ratio       :            2.00634704


DFT components:
N(Alpha)           :        4.999999638975 electrons
N(Beta)            :        4.000000370383 electrons
N(Total)           :        9.000000009358 electrons
E(X)               :       -4.900814808999 Eh       
E(C)               :       -0.308906520977 Eh       
E(XC)              :       -5.209721329976 Eh       
DFET-embed. en.    :        0.000000000000 Eh       

---------------
SCF CONVERGENCE
---------------

  Last Energy change         ...   -7.9605e-08  Tolerance :   1.0000e-06
  Last MAX-Density change    ...    0.0000e+00  Tolerance :   1.0000e-05
  Last RMS-Density change    ...    0.0000e+00  Tolerance :   1.0000e-06
  Last DIIS Error            ...    6.3055e-05  Tolerance :   1.0000e-06

             **** THE GBW FILE WAS UPDATED (/home/rwth0701/scratch/cs681498/orcajob__30556316-dMnP/8647.gbw) ****
             **** DENSITY /home/rwth0701/scratch/cs681498/orcajob__30556316-dMnP/8647.scfp WAS UPDATED ****
             **** ENERGY FILE WAS UPDATED (/home/rwth0701/scratch/cs681498/orcajob__30556316-dMnP/8647.en.tmp) ****
----------------------
UHF SPIN CONTAMINATION
----------------------

Warning: in a DFT calculation there is little theoretical justification to 
         calculate <S**2> as in Hartree-Fock theory. We will do it anyways
         but you should keep in mind that the values have only limited relevance

Expectation value of <S**2>     :     0.753816
Ideal value S*(S+1) for S=0.5   :     0.750000
Deviation                       :     0.003816

             **** THE GBW FILE WAS UPDATED (/home/rwth0701/scratch/cs681498/orcajob__30556316-dMnP/8647.gbw) ****
             **** DENSITY /home/rwth0701/scratch/cs681498/orcajob__30556316-dMnP/8647.scfp WAS UPDATED ****
----------------
ORBITAL ENERGIES
----------------
                 SPIN UP ORBITALS
  NO   OCC          E(Eh)            E(eV) 
   0   1.0000     -10.189057      -277.2583 
   1   1.0000      -0.684754       -18.6331 
   2   1.0000      -0.439795       -11.9674 
   3   1.0000      -0.399182       -10.8623 
   4   1.0000      -0.235322        -6.4034 
   5   0.0000       0.000319         0.0087 
   6   0.0000       0.034913         0.9500 
   7   0.0000       0.038300         1.0422 
   8   0.0000       0.047367         1.2889 
   9   0.0000       0.083443         2.2706 
  10   0.0000       0.088540         2.4093 
  11   0.0000       0.099337         2.7031 
  12   0.0000       0.218786         5.9535 
  13   0.0000       0.223922         6.0932 
  14   0.0000       0.249092         6.7781 
  15   0.0000       0.275835         7.5058 
  16   0.0000       0.284597         7.7443 
  17   0.0000       0.318820         8.6755 
  18   0.0000       0.341559         9.2943 
  19   0.0000       0.552558        15.0359 
  20   0.0000       0.559978        15.2378 
  21   0.0000       0.730836        19.8871 
  22   0.0000       0.745298        20.2806 
  23   0.0000       0.775945        21.1145 
  24   0.0000       0.829728        22.5780 
  25   0.0000       0.882619        24.0173 
  26   0.0000       0.894827        24.3495 
  27   0.0000       0.932856        25.3843 
  28   0.0000       0.958698        26.0875 
  29   0.0000       1.042653        28.3720 
  30   0.0000       1.065788        29.0016 
  31   0.0000       1.120658        30.4946 
  32   0.0000       1.162192        31.6249 
  33   0.0000       1.168305        31.7912 
  34   0.0000       1.430146        38.9163 
  35   0.0000       1.482077        40.3294 
  36   0.0000       1.499870        40.8135 
  37   0.0000       1.680144        45.7190 
  38   0.0000       1.733914        47.1822 
  39   0.0000       1.768777        48.1309 
  40   0.0000       2.710984        73.7696 
  41   0.0000       2.745837        74.7180 
  42   0.0000       2.860287        77.8324 
  43   0.0000       2.894372        78.7599 
  44   0.0000       2.904013        79.0222 
  45   0.0000       2.981043        81.1183 
  46   0.0000       3.009746        81.8994 
  47   0.0000       3.148108        85.6644 
  48   0.0000       3.165748        86.1444 
  49   0.0000       3.247481        88.3685 
  50   0.0000       3.265820        88.8675 
  51   0.0000       3.710386       100.9647 
  52   0.0000       3.719097       101.2018 
  53   0.0000       3.776914       102.7751 
  54   0.0000       3.843401       104.5842 
  55   0.0000       3.951685       107.5308 
  56   0.0000       3.984648       108.4278 
  57   0.0000       4.103194       111.6536 
  58   0.0000       4.179785       113.7377 
  59   0.0000       4.191969       114.0693 
  60   0.0000       4.609944       125.4430 
  61   0.0000       4.983832       135.6170 
  62   0.0000       5.267635       143.3396 
  63   0.0000       5.438252       147.9824 
  64   0.0000       5.559017       151.2685 
  65   0.0000       6.001151       163.2996 
  66   0.0000       6.165961       167.7843 
  67   0.0000       7.707645       209.7357 
  68   0.0000      29.049082       790.4657 
  69   0.0000      37.057396      1008.3830 
  70   0.0000      37.202350      1012.3274 
  71   0.0000      37.258548      1013.8566 
  72   0.0000     133.502898      3632.7985 

                 SPIN DOWN ORBITALS
  NO   OCC          E(Eh)            E(eV) 
   0   1.0000     -10.174512      -276.8626 
   1   1.0000      -0.645104       -17.5542 
   2   1.0000      -0.430280       -11.7085 
   3   1.0000      -0.390067       -10.6143 
   4   0.0000      -0.077486        -2.1085 
   5   0.0000       0.003611         0.0983 
   6   0.0000       0.034580         0.9410 
   7   0.0000       0.037977         1.0334 
   8   0.0000       0.060640         1.6501 
   9   0.0000       0.084071         2.2877 
  10   0.0000       0.094537         2.5725 
  11   0.0000       0.099993         2.7209 
  12   0.0000       0.220445         5.9986 
  13   0.0000       0.225178         6.1274 
  14   0.0000       0.267987         7.2923 
  15   0.0000       0.290027         7.8920 
  16   0.0000       0.310294         8.4435 
  17   0.0000       0.325247         8.8504 
  18   0.0000       0.353473         9.6185 
  19   0.0000       0.579375        15.7656 
  20   0.0000       0.586239        15.9524 
  21   0.0000       0.734477        19.9861 
  22   0.0000       0.746363        20.3096 
  23   0.0000       0.801203        21.8018 
  24   0.0000       0.827793        22.5254 
  25   0.0000       0.886159        24.1136 
  26   0.0000       0.899279        24.4706 
  27   0.0000       0.950502        25.8645 
  28   0.0000       0.977750        26.6059 
  29   0.0000       1.066450        29.0196 
  30   0.0000       1.123743        30.5786 
  31   0.0000       1.141958        31.0743 
  32   0.0000       1.176168        32.0052 
  33   0.0000       1.179815        32.1044 
  34   0.0000       1.444431        39.3050 
  35   0.0000       1.493993        40.6536 
  36   0.0000       1.509569        41.0775 
  37   0.0000       1.688966        45.9591 
  38   0.0000       1.741370        47.3851 
  39   0.0000       1.775773        48.3212 
  40   0.0000       2.751949        74.8843 
  41   0.0000       2.786615        75.8276 
  42   0.0000       2.863152        77.9103 
  43   0.0000       2.906589        79.0923 
  44   0.0000       2.974318        80.9353 
  45   0.0000       3.017392        82.1074 
  46   0.0000       3.035281        82.5942 
  47   0.0000       3.200909        87.1011 
  48   0.0000       3.215552        87.4996 
  49   0.0000       3.302954        89.8779 
  50   0.0000       3.325467        90.4906 
  51   0.0000       3.714564       101.0784 
  52   0.0000       3.771462       102.6267 
  53   0.0000       3.781343       102.8956 
  54   0.0000       3.840716       104.5112 
  55   0.0000       3.967676       107.9660 
  56   0.0000       4.002195       108.9053 
  57   0.0000       4.106646       111.7475 
  58   0.0000       4.194714       114.1440 
  59   0.0000       4.203314       114.3780 
  60   0.0000       4.610119       125.4477 
  61   0.0000       5.001921       136.1092 
  62   0.0000       5.269505       143.3905 
  63   0.0000       5.435985       147.9207 
  64   0.0000       5.557166       151.2182 
  65   0.0000       6.002659       163.3407 
  66   0.0000       6.169270       167.8744 
  67   0.0000       7.742719       210.6901 
  68   0.0000      29.075969       791.1973 
  69   0.0000      37.044858      1008.0418 
  70   0.0000      37.189962      1011.9903 
  71   0.0000      37.247150      1013.5465 
  72   0.0000     133.510823      3633.0142 

                    ********************************
                    * MULLIKEN POPULATION ANALYSIS *
                    ********************************

--------------------------------------------
MULLIKEN ATOMIC CHARGES AND SPIN POPULATIONS
--------------------------------------------
   0 C :   -0.427902    1.106354
   1 H :    0.129014   -0.039796
   2 H :    0.152160   -0.031009
   3 H :    0.146729   -0.035548
Sum of atomic charges         :   -0.0000000
Sum of atomic spin populations:    1.0000000

-----------------------------------------------------
MULLIKEN REDUCED ORBITAL CHARGES AND SPIN POPULATIONS
-----------------------------------------------------
CHARGE
  0 C s       :     3.339399  s :     3.339399
      pz      :     0.970143  p :     3.061214
      px      :     1.040657
      py      :     1.050414
      dz2     :     0.005382  d :     0.024301
      dxz     :     0.000676
      dyz     :     0.000239
      dx2y2   :     0.006755
      dxy     :     0.011250
      f0      :     0.000104  f :     0.002988
      f+1     :     0.000543
      f-1     :     0.000703
      f+2     :     0.000042
      f-2     :     0.000092
      f+3     :     0.000503
      f-3     :     0.001002
  1 H s       :     0.847711  s :     0.847711
      pz      :     0.008986  p :     0.023275
      px      :     0.007452
      py      :     0.006837
  2 H s       :     0.818309  s :     0.818309
      pz      :     0.011659  p :     0.029531
      px      :     0.007872
      py      :     0.010000
  3 H s       :     0.826508  s :     0.826508
      pz      :     0.010482  p :     0.026763
      px      :     0.009253
      py      :     0.007028

SPIN
  0 C s       :     0.067777  s :     0.067777
      pz      :     0.943692  p :     1.042883
      px      :     0.062479
      py      :     0.036712
      dz2     :    -0.004392  d :    -0.002975
      dxz     :    -0.000333
      dyz     :     0.000032
      dx2y2   :     0.000614
      dxy     :     0.001104
      f0      :    -0.000084  f :    -0.001331
      f+1     :    -0.000497
      f-1     :    -0.000618
      f+2     :    -0.000035
      f-2     :    -0.000033
      f+3     :    -0.000021
      f-3     :    -0.000042
  1 H s       :    -0.048286  s :    -0.048286
      pz      :     0.008823  p :     0.008490
      px      :    -0.000058
      py      :    -0.000275
  2 H s       :    -0.042426  s :    -0.042426
      pz      :     0.011461  p :     0.011417
      px      :     0.000079
      py      :    -0.000123
  3 H s       :    -0.045670  s :    -0.045670
      pz      :     0.010171  p :     0.010122
      px      :     0.000141
      py      :    -0.000190


                     *******************************
                     * LOEWDIN POPULATION ANALYSIS *
                     *******************************

-------------------------------------------
LOEWDIN ATOMIC CHARGES AND SPIN POPULATIONS
-------------------------------------------
   0 C :   -0.159369    0.913815
   1 H :    0.078352    0.019360
   2 H :    0.023897    0.038908
   3 H :    0.057121    0.027917

----------------------------------------------------
LOEWDIN REDUCED ORBITAL CHARGES AND SPIN POPULATIONS
----------------------------------------------------
CHARGE
  0 C s       :     2.893169  s :     2.893169
      pz      :     0.882755  p :     3.168164
      px      :     1.133083
      py      :     1.152325
      dz2     :     0.006646  d :     0.090611
      dxz     :     0.001635
      dyz     :     0.001135
      dx2y2   :     0.031541
      dxy     :     0.049654
      f0      :     0.000428  f :     0.007425
      f+1     :     0.001535
      f-1     :     0.001970
      f+2     :     0.000137
      f-2     :     0.000216
      f+3     :     0.001078
      f-3     :     0.002061
  1 H s       :     0.798317  s :     0.798317
      pz      :     0.034612  p :     0.123331
      px      :     0.047022
      py      :     0.041698
  2 H s       :     0.814118  s :     0.814118
      pz      :     0.048320  p :     0.161985
      px      :     0.039636
      py      :     0.074029
  3 H s       :     0.802258  s :     0.802258
      pz      :     0.041490  p :     0.140621
      px      :     0.063536
      py      :     0.035595

SPIN
  0 C s       :     0.020190  s :     0.020190
      pz      :     0.853214  p :     0.902518
      px      :     0.036301
      py      :     0.013003
      dz2     :    -0.003772  d :    -0.007574
      dxz     :    -0.000345
      dyz     :    -0.000034
      dx2y2   :    -0.001203
      dxy     :    -0.002219
      f0      :     0.000069  f :    -0.001319
      f+1     :    -0.000441
      f-1     :    -0.000570
      f+2     :    -0.000032
      f-2     :    -0.000042
      f+3     :    -0.000100
      f-3     :    -0.000204
  1 H s       :    -0.019681  s :    -0.019681
      pz      :     0.033594  p :     0.039041
      px      :     0.003388
      py      :     0.002059
  2 H s       :    -0.015415  s :    -0.015415
      pz      :     0.047380  p :     0.054323
      px      :     0.002344
      py      :     0.004599
  3 H s       :    -0.017993  s :    -0.017993
      pz      :     0.039626  p :     0.045910
      px      :     0.004955
      py      :     0.001329


                      *****************************
                      * MAYER POPULATION ANALYSIS *
                      *****************************

  NA   - Mulliken gross atomic population
  ZA   - Total nuclear charge
  QA   - Mulliken gross atomic charge
  VA   - Mayer's total valence
  BVA  - Mayer's bonded valence
  FA   - Mayer's free valence

  ATOM       NA         ZA         QA         VA         BVA        FA
  0 C      6.4279     6.0000    -0.4279     3.8737     2.9274     0.9464
  1 H      0.8710     1.0000     0.1290     0.9812     0.9790     0.0023
  2 H      0.8478     1.0000     0.1522     0.9837     0.9819     0.0018
  3 H      0.8533     1.0000     0.1467     0.9832     0.9811     0.0021

  Mayer bond orders larger than 0.100000
B(  0-C ,  1-H ) :   0.9775 B(  0-C ,  2-H ) :   0.9752 B(  0-C ,  3-H ) :   0.9747 


-------
TIMINGS
-------

Total SCF time: 0 days 0 hours 0 min 5 sec 

Total time                  ....       5.551 sec
Sum of individual times     ....       4.899 sec  ( 88.3%)

Fock matrix formation       ....       4.073 sec  ( 73.4%)
  Split-RI-J                ....       0.448 sec  ( 11.0% of F)
  Chain of spheres X        ....       0.963 sec  ( 23.7% of F)
  XC integration            ....       1.516 sec  ( 37.2% of F)
    Basis function eval.    ....       0.112 sec  (  7.4% of XC)
    Density eval.           ....       0.115 sec  (  7.6% of XC)
    XC-Functional eval.     ....       0.100 sec  (  6.6% of XC)
    XC-Potential eval.      ....       0.157 sec  ( 10.3% of XC)
Diagonalization             ....       0.058 sec  (  1.0%)
Density matrix formation    ....       0.002 sec  (  0.0%)
Population analysis         ....       0.054 sec  (  1.0%)
Initial guess               ....       0.094 sec  (  1.7%)
Orbital Transformation      ....       0.000 sec  (  0.0%)
Orbital Orthonormalization  ....       0.000 sec  (  0.0%)
DIIS solution               ....       0.055 sec  (  1.0%)
Grid generation             ....       0.564 sec  ( 10.2%)

Maximum memory used throughout the entire SCF-calculation: 59.0 MB

-------------------------   --------------------
FINAL SINGLE POINT ENERGY       -39.822624164944
-------------------------   --------------------

   --->>> g-tensor requested, so NeedSOC=true

                            ***************************************
                            *     ORCA property calculations      *
                            ***************************************

                                    ---------------------
                                    Active property flags
                                    ---------------------
   (+) Dipole Moment
   (+) g-tensor
   (+) Nuclear properties (Hyperfine,Quadrupole)
   (+) Spin-Orbit Integrals are needed


------------------------------------------------------------------------------
                       ORCA ELECTRIC PROPERTIES CALCULATION
------------------------------------------------------------------------------

Dipole Moment Calculation                       ... on
Quadrupole Moment Calculation                   ... off
Polarizability Calculation                      ... off
GBWName                                         ... /home/rwth0701/scratch/cs681498/orcajob__30556316-dMnP/8647.gbw
Electron density                                ... /home/rwth0701/scratch/cs681498/orcajob__30556316-dMnP/8647.scfp
The origin for moment calculation is the CENTER OF MASS  = (-53.783242, -88.955860 -33.508799)

-------------
DIPOLE MOMENT
-------------
                                X             Y             Z
Electronic contribution:     -0.10312       0.16232       0.01553
Nuclear contribution   :      0.10555      -0.16125      -0.03647
                        -----------------------------------------
Total Dipole Moment    :      0.00243       0.00107      -0.02094
                        -----------------------------------------
Magnitude (a.u.)       :      0.02111
Magnitude (Debye)      :      0.05365



--------------------
Rotational spectrum 
--------------------
 
Rotational constants in cm-1:     9.583310     8.975352     4.638522 
Rotational constants in MHz : 287300.404287 269074.297458 139059.397684 

 Dipole components along the rotational axes: 
x,y,z [a.u.] :    -0.000026    -0.001736    -0.021037 
x,y,z [Debye]:    -0.000065    -0.004413    -0.053472 

 


           ************************************************************
           *        Program running with 4 parallel MPI-processes     *
           *              working on a common directory               *
           ************************************************************
------------------------------------------------------------------------------
                         ORCA SPIN-ORBIT COUPLING CALCULATION
------------------------------------------------------------------------------

GBW file                                    ... /home/rwth0701/scratch/cs681498/orcajob__30556316-dMnP/8647.gbw
Input density                               ... /home/rwth0701/scratch/cs681498/orcajob__30556316-dMnP/8647.scfp
Output integrals                            ... /home/rwth0701/scratch/cs681498/orcajob__30556316-dMnP/8647
Operator type                               ... Mean-field/Effective potential
   One-Electron Terms                       ... 1
   Coulomb Contribution                     ... 3
   Exchange Contribution                    ... 3
   Correlation Contribution                 ... 0
   Maximum number of centers                ... 4
SHARK 2-electron RIJ-SOMF                   ... done (  0.1 sec)
SHARK 1-electron  MaxCenter=4               ... done (  0.0 sec)
SHARK 2-electron DoJ,X=0,1 MaxCenter=1      ... done (  0.1 sec)

Maximum memory used throughout the entire SOC-calculation: 11.3 MB
Total time for SOC:  2.306


           ************************************************************
           *        Program running with 4 parallel MPI-processes     *
           *              working on a common directory               *
           ************************************************************
------------------------------------------------------------------------------
                                ORCA EPR/NMR CALCULATION
------------------------------------------------------------------------------

GBWName                      ... /home/rwth0701/scratch/cs681498/orcajob__30556316-dMnP/8647.gbw
Electron density             ... /home/rwth0701/scratch/cs681498/orcajob__30556316-dMnP/8647.scfp
Spin density                 ... /home/rwth0701/scratch/cs681498/orcajob__30556316-dMnP/8647.scfr
Spin-orbit integrals         ... /home/rwth0701/scratch/cs681498/orcajob__30556316-dMnP/8647
Treatment of gauge           ... GIAO (approximations 1/2el = 0,0)
Details of the CP(SCF) procedure:
       Solver   = POPLE   
       MaxIter  =    64   
       Tolerance=    1.000e-03
       COSX Grid=     1   
       Op-0     =   0-  4 =>   5- 72
       Op-1     =   0-  3 =>   4- 72
Multiplicity                 ... 2
g-tensor                     ... 1
NMR chemical shifts          ... 0
NMR spin-spin couplings      ... 0
NMR spectrum                 ... 0
Number of nuclei for epr/nmr ... 4
   Nucleus:   1H 
       Hyperfine : Isotope=    1 I=   0.500 P= 533.551
       Quadrupole: Isotope=    2 I=   1.000 Q=   0.003
       Spin-Orbit: Zeff=   1.000
       Nuclear Spin-Spin: Gn=   0.000
       EPRNMR Input: 
       rho(0)=N f(grad)=N a(iso)=Y a(dip)=Y a(orb)=Y sigma(nmr)=N spin-spin(nmr)=all-N,DSO-N,PSO-N,FC-N,SD-N
   Nucleus:   2H 
       Hyperfine : Isotope=    1 I=   0.500 P= 533.551
       Quadrupole: Isotope=    2 I=   1.000 Q=   0.003
       Spin-Orbit: Zeff=   1.000
       Nuclear Spin-Spin: Gn=   0.000
       EPRNMR Input: 
       rho(0)=N f(grad)=N a(iso)=Y a(dip)=Y a(orb)=Y sigma(nmr)=N spin-spin(nmr)=all-N,DSO-N,PSO-N,FC-N,SD-N
   Nucleus:   3H 
       Hyperfine : Isotope=    1 I=   0.500 P= 533.551
       Quadrupole: Isotope=    2 I=   1.000 Q=   0.003
       Spin-Orbit: Zeff=   1.000
       Nuclear Spin-Spin: Gn=   0.000
       EPRNMR Input: 
       rho(0)=N f(grad)=N a(iso)=Y a(dip)=Y a(orb)=Y sigma(nmr)=N spin-spin(nmr)=all-N,DSO-N,PSO-N,FC-N,SD-N
   Nucleus:   0C 
       Hyperfine : Isotope=   13 I=   0.500 P= 134.190
       Quadrupole: Isotope=   13 I=   0.500 Q=   0.000
       Spin-Orbit: Zeff=   3.600
       Nuclear Spin-Spin: Gn=   0.000
       EPRNMR Input: 
       rho(0)=N f(grad)=N a(iso)=Y a(dip)=Y a(orb)=Y sigma(nmr)=N spin-spin(nmr)=all-N,DSO-N,PSO-N,FC-N,SD-N
Forming RHS of the CP-SCF equations         ... 
Calculating right hand sides for GIAO treatment        ... 
  Entering RightHandSide GIAO. ScalHFX=    0.2000 NeedHFX=1
     -> 1-electron GIAO integrals will be done analytically
     -> RIJCOSX used in SCF. Same chosen for GIAO calculation.
     Making grid for GIAO integrations   ...

GRID GIAO
---------

General Integration Accuracy     IntAcc      ... 4.388
Radial Grid Type                 RadialGrid  ... OptM3 with GC (2021)
Angular Grid (max. ang.)         AngularGrid ... 4 (Lebedev-302)
Angular grid pruning method      GridPruning ... 4 (adaptive)
Weight generation scheme         WeightScheme... Becke
Basis function cutoff            BFCut       ... 1.0000e-10
Integration weight cutoff        WCut        ... 1.0000e-14
Angular grids for H and He will be reduced by one unit
Partially contracted basis set               ... off
Rotationally invariant grid construction     ... off

Total number of grid points                  ...    17040
Total number of batches                      ...      268
Average number of points per batch           ...       63
Average number of grid points per atom       ...     4260

  One-electron GIAO integrals (SHARK)     ... done
  Calculating G(B)[P]                     ... (RI-J: SHARK-ok) (COSX-ok) (add-J+K:ok) => dG/dB done
  DFT XC-terms                            ... done
  Extracting occupied and virtual blocks  ... 
  Operator  0  NO=   5 NV=  68 
  Operator  1  NO=   4 NV=  69 
  Transforming and RHS contribution       ... done
  Adding eps_i * S(B)_ai terms            ... done
  Projecting overlap derivatives          ... done
  Building G[dS/dB_ij] (COSX)             ... done
  Transforming to MO basis                ... done
  Summing G[dS/dB_ij] into RHS contribs.  ... done

  GIAO profiling information: 
    Total GIAO time               ...       0.8 sec
       GIAO 1-electron integrals  ...       0.0 sec (  0.5%)
       GIAO G(dS/dB) terms        ...       0.1 sec ( 12.2%)
       GIAO RI-J                  ...       0.1 sec ( 13.1%)
       GIAO COSX                  ...       0.1 sec ( 18.7%)
       GIAO XC-terms              ...       0.3 sec ( 36.9%)

  GIAO right hand side done


------------------------------------------------------------------------------
                           ORCA CP-SCF CALCULATION
------------------------------------------------------------------------------

Input orbitals are from        ... /home/rwth0701/scratch/cs681498/orcajob__30556316-dMnP/8647.gbw
Input Perturbation             ... /home/rwth0701/scratch/cs681498/orcajob__30556316-dMnP/8647.pin.tmp
Wavefunction output            ... /home/rwth0701/scratch/cs681498/orcajob__30556316-dMnP/8647.pout.tmp
Perturbation mode              ... Imaginary perturbation
Solver                         ... POPLE
Max. number of iterations      ... 64
Convergence tolerance          ... 1.000e-03
Integral handling              ... Direct
DFT GridXC                     ... 1
COSX GridX                     ... 1
COSX IntAccX                   ... 3.067
COSX Algorithm                 ... Auto
Number of perturbations        ... 3
Number of operators            ... 2
Orbital ranges used for CP-SCF:
 Operator 0:  Orbitals   0...  4  to   5... 72
 Operator 1:  Orbitals   0...  3  to   4... 72
Variables per perturbation     ... 616
DFT calculation                         ... on
XC functional terms                     ... off
Hybrid DFT                              ... on
   Exchange mixing (SCF)                ...  0.200
   Exchange mixing (CP-SCF)             ...  0.200
   GGA exch. scaling(SCF)               ...  0.720
   GGA exch. scaling (CP-SCF)           ...  0.720
   GGA corr. scaling (SCF)              ...  0.810
   GGA corr. scaling (CP-SCF)           ...  0.810

CP-SCF GRID
-----------

General Integration Accuracy     IntAcc      ... 3.467
Radial Grid Type                 RadialGrid  ... OptM3 with GC (2021)
Angular Grid (max. ang.)         AngularGrid ... 1 (Lebedev-50)
Angular grid pruning method      GridPruning ... 4 (adaptive)
Weight generation scheme         WeightScheme... Becke
Basis function cutoff            BFCut       ... 1.0000e-10
Integration weight cutoff        WCut        ... 1.0000e-14
Angular grids for H and He will be reduced by one unit
Partially contracted basis set               ... off
Rotationally invariant grid construction     ... off

Total number of grid points                  ...     2341
Total number of batches                      ...       39
Average number of points per batch           ...       60
Average number of grid points per atom       ...      585

CP-SCF GRIDX
------------

General Integration Accuracy     IntAcc      ... 3.067
Radial Grid Type                 RadialGrid  ... OptM3 with GC (2021)
Angular Grid (max. ang.)         AngularGrid ... 1 (Lebedev-50)
Angular grid pruning method      GridPruning ... 4 (adaptive)
Weight generation scheme         WeightScheme... Becke
Basis function cutoff            BFCut       ... 1.0000e-10
Integration weight cutoff        WCut        ... 1.0000e-14
Angular grids for H and He will be reduced by one unit
Partially contracted basis set               ... on
Rotationally invariant grid construction     ... off

Total number of grid points                  ...     1075
Total number of batches                      ...       20
Average number of points per batch           ...       53
Average number of grid points per atom       ...      269

Memory available               ... 1014.6 MB
Memory needed per perturbation ...   0.4 MB
Perturbations treated per batch... 3
Number of batches              ... 1
     CP-SCF ITERATION   0:   5.0185e+00 (   0.1 sec   0/  3 done)
     CP-SCF ITERATION   1:   4.0301e-02 (   0.1 sec   0/  3 done)
     CP-SCF ITERATION   2:   2.9020e-03 (   0.1 sec   0/  3 done)
     CP-SCF ITERATION   3:   2.6504e-04 (   0.1 sec   3/  3 done)
                    *** THE CP-SCF HAS CONVERGED ***

Forming final perturbed densities           ... done
Transforming perturbed density to AO basis  ... done

Magnetic field perturbation calculated in  1.256 sec
GIAO: Diamagnetic terms      (analytic)     (SHARK) ... done
GIAO: 1el-Paramagnetic terms (analytic)     (SHARK) ... done

-------------------
ELECTRONIC G-MATRIX
-------------------

 The g-matrix: 
              2.0028896    0.0000042    0.0001068
              0.0000046    2.0028919   -0.0000139
              0.0000973   -0.0000325    2.0022479

 gel          2.0023193    2.0023193    2.0023193
 gRMC        -0.0001275   -0.0001275   -0.0001275
 gDSO(tot)    0.0000344    0.0000710    0.0000708
 gPSO(tot)    0.0000050    0.0006300    0.0006430
             ----------   ----------   ----------
 g(tot)       2.0022312    2.0028927    2.0029055 iso=  2.0026765
 Delta-g     -0.0000881    0.0005734    0.0005862 iso=  0.0003572
 Orientation: 
  X          -0.1532707    0.0554010    0.9866300
  Y           0.0356846   -0.9974657    0.0615529
  Z           0.9875397    0.0446418    0.1509053

Notes:  (1) The g-matrix conforms to the "BgS" spin Hamiltonian convention. 
        (2) The principal values are square roots of the eigenvalues of g*gT.
        (3) Orientations are eigenvectors of g*gT written as column vectors.
        (4) Individual contributions are projections of the full matrices onto the eigenvectors of g*gT.
        (5) Tensor is right-handed.


-----------------------------------------
ELECTRIC AND MAGNETIC HYPERFINE STRUCTURE
-----------------------------------------

 -----------------------------------------------------------
 Nucleus   1H : A:ISTP=    1 I=  0.5 P=533.5514 MHz/au**3
                Q:ISTP=    2 I=  1.0 Q=  0.0029 barn     
 -----------------------------------------------------------
 Solving for nuclear perturbation:
Forming RHS of the CP-SCF equations         ... 
Calc. nucleus orbit integrals (SHARK)       ... done

------------------------------------------------------------------------------
                           ORCA CP-SCF CALCULATION
------------------------------------------------------------------------------

Input orbitals are from        ... /home/rwth0701/scratch/cs681498/orcajob__30556316-dMnP/8647.gbw
Input Perturbation             ... /home/rwth0701/scratch/cs681498/orcajob__30556316-dMnP/8647.pin.tmp
Wavefunction output            ... /home/rwth0701/scratch/cs681498/orcajob__30556316-dMnP/8647.pout.tmp
Perturbation mode              ... Imaginary perturbation
Solver                         ... POPLE
Max. number of iterations      ... 64
Convergence tolerance          ... 1.000e-03
Integral handling              ... Direct
DFT GridXC                     ... 1
COSX GridX                     ... 1
COSX IntAccX                   ... 3.067
COSX Algorithm                 ... Auto
Number of perturbations        ... 3
Number of operators            ... 2
Orbital ranges used for CP-SCF:
 Operator 0:  Orbitals   0...  4  to   5... 72
 Operator 1:  Orbitals   0...  3  to   4... 72
Variables per perturbation     ... 616
DFT calculation                         ... on
XC functional terms                     ... off
Hybrid DFT                              ... on
   Exchange mixing (SCF)                ...  0.200
   Exchange mixing (CP-SCF)             ...  0.200
   GGA exch. scaling(SCF)               ...  0.720
   GGA exch. scaling (CP-SCF)           ...  0.720
   GGA corr. scaling (SCF)              ...  0.810
   GGA corr. scaling (CP-SCF)           ...  0.810

CP-SCF GRID
-----------

General Integration Accuracy     IntAcc      ... 3.467
Radial Grid Type                 RadialGrid  ... OptM3 with GC (2021)
Angular Grid (max. ang.)         AngularGrid ... 1 (Lebedev-50)
Angular grid pruning method      GridPruning ... 4 (adaptive)
Weight generation scheme         WeightScheme... Becke
Basis function cutoff            BFCut       ... 1.0000e-10
Integration weight cutoff        WCut        ... 1.0000e-14
Angular grids for H and He will be reduced by one unit
Partially contracted basis set               ... off
Rotationally invariant grid construction     ... off

Total number of grid points                  ...     2341
Total number of batches                      ...       39
Average number of points per batch           ...       60
Average number of grid points per atom       ...      585

CP-SCF GRIDX
------------

General Integration Accuracy     IntAcc      ... 3.067
Radial Grid Type                 RadialGrid  ... OptM3 with GC (2021)
Angular Grid (max. ang.)         AngularGrid ... 1 (Lebedev-50)
Angular grid pruning method      GridPruning ... 4 (adaptive)
Weight generation scheme         WeightScheme... Becke
Basis function cutoff            BFCut       ... 1.0000e-10
Integration weight cutoff        WCut        ... 1.0000e-14
Angular grids for H and He will be reduced by one unit
Partially contracted basis set               ... on
Rotationally invariant grid construction     ... off

Total number of grid points                  ...     1075
Total number of batches                      ...       20
Average number of points per batch           ...       53
Average number of grid points per atom       ...      269

Memory available               ... 968.0 MB
Memory needed per perturbation ...   0.4 MB
Perturbations treated per batch... 3
Number of batches              ... 1
     CP-SCF ITERATION   0:   5.3625e-02 (   0.1 sec   0/  3 done)
     CP-SCF ITERATION   1:   1.9136e-03 (   0.1 sec   1/  3 done)
     CP-SCF ITERATION   2:   1.6071e-04 (   0.1 sec   3/  3 done)
                    *** THE CP-SCF HAS CONVERGED ***

Forming final perturbed densities           ... done
Transforming perturbed density to AO basis  ... done

 Raw HFC matrix (all values in MHz): 
 -----------------------------------
               -61.0596             -34.9486               1.1299
               -34.9480             -69.3773              -4.9226
                 1.1299              -4.9227             -67.7834

 A(FC)         -66.0871             -66.0871             -66.0871
 A(SD)          36.4947              -1.8769             -34.6178
 A(ORB+DIA)      0.0133              -0.0007               0.0286    A(PC) =   0.0137
 A(ORB)          0.0091               0.0003               0.0275    A(PC) =   0.0123
 A(DIA)          0.0042              -0.0011               0.0011    A(PC) =   0.0014
             ----------           ----------           ----------
 A(Tot)        -29.5792             -67.9648            -100.6763    A(iso)=  -66.0734
 Orientation: 
  X           0.7404365            0.1396508            0.6574583
  Y          -0.6634919           -0.0044204            0.7481704
  Z           0.1073888           -0.9901910            0.0893842

Notes:  (1) The A matrix conforms to the "SAI" spin Hamiltonian convention.
        (2) Tensor is right-handed.

 -----------------------------------------------------------
 Nucleus   2H : A:ISTP=    1 I=  0.5 P=533.5514 MHz/au**3
                Q:ISTP=    2 I=  1.0 Q=  0.0029 barn     
 -----------------------------------------------------------
 Solving for nuclear perturbation:
Forming RHS of the CP-SCF equations         ... 
Calc. nucleus orbit integrals (SHARK)       ... done

------------------------------------------------------------------------------
                           ORCA CP-SCF CALCULATION
------------------------------------------------------------------------------

Input orbitals are from        ... /home/rwth0701/scratch/cs681498/orcajob__30556316-dMnP/8647.gbw
Input Perturbation             ... /home/rwth0701/scratch/cs681498/orcajob__30556316-dMnP/8647.pin.tmp
Wavefunction output            ... /home/rwth0701/scratch/cs681498/orcajob__30556316-dMnP/8647.pout.tmp
Perturbation mode              ... Imaginary perturbation
Solver                         ... POPLE
Max. number of iterations      ... 64
Convergence tolerance          ... 1.000e-03
Integral handling              ... Direct
DFT GridXC                     ... 1
COSX GridX                     ... 1
COSX IntAccX                   ... 3.067
COSX Algorithm                 ... Auto
Number of perturbations        ... 3
Number of operators            ... 2
Orbital ranges used for CP-SCF:
 Operator 0:  Orbitals   0...  4  to   5... 72
 Operator 1:  Orbitals   0...  3  to   4... 72
Variables per perturbation     ... 616
DFT calculation                         ... on
XC functional terms                     ... off
Hybrid DFT                              ... on
   Exchange mixing (SCF)                ...  0.200
   Exchange mixing (CP-SCF)             ...  0.200
   GGA exch. scaling(SCF)               ...  0.720
   GGA exch. scaling (CP-SCF)           ...  0.720
   GGA corr. scaling (SCF)              ...  0.810
   GGA corr. scaling (CP-SCF)           ...  0.810

CP-SCF GRID
-----------

General Integration Accuracy     IntAcc      ... 3.467
Radial Grid Type                 RadialGrid  ... OptM3 with GC (2021)
Angular Grid (max. ang.)         AngularGrid ... 1 (Lebedev-50)
Angular grid pruning method      GridPruning ... 4 (adaptive)
Weight generation scheme         WeightScheme... Becke
Basis function cutoff            BFCut       ... 1.0000e-10
Integration weight cutoff        WCut        ... 1.0000e-14
Angular grids for H and He will be reduced by one unit
Partially contracted basis set               ... off
Rotationally invariant grid construction     ... off

Total number of grid points                  ...     2341
Total number of batches                      ...       39
Average number of points per batch           ...       60
Average number of grid points per atom       ...      585

CP-SCF GRIDX
------------

General Integration Accuracy     IntAcc      ... 3.067
Radial Grid Type                 RadialGrid  ... OptM3 with GC (2021)
Angular Grid (max. ang.)         AngularGrid ... 1 (Lebedev-50)
Angular grid pruning method      GridPruning ... 4 (adaptive)
Weight generation scheme         WeightScheme... Becke
Basis function cutoff            BFCut       ... 1.0000e-10
Integration weight cutoff        WCut        ... 1.0000e-14
Angular grids for H and He will be reduced by one unit
Partially contracted basis set               ... on
Rotationally invariant grid construction     ... off

Total number of grid points                  ...     1075
Total number of batches                      ...       20
Average number of points per batch           ...       53
Average number of grid points per atom       ...      269

Memory available               ... 967.8 MB
Memory needed per perturbation ...   0.4 MB
Perturbations treated per batch... 3
Number of batches              ... 1
     CP-SCF ITERATION   0:   8.0236e-02 (   0.1 sec   0/  3 done)
     CP-SCF ITERATION   1:   2.9845e-03 (   0.1 sec   1/  3 done)
     CP-SCF ITERATION   2:   2.2100e-04 (   0.1 sec   3/  3 done)
                    *** THE CP-SCF HAS CONVERGED ***

Forming final perturbed densities           ... done
Transforming perturbed density to AO basis  ... done

 Raw HFC matrix (all values in MHz): 
 -----------------------------------
              -101.4844              21.0431              -7.2711
                21.0437             -30.5870               1.7607
                -7.2711               1.7605             -62.5556

 A(FC)         -64.8898             -64.8898             -64.8898
 A(SD)          40.0697               3.5509             -43.6206
 A(ORB+DIA)      0.0100              -0.0005               0.0327    A(PC) =   0.0141
 A(ORB)          0.0045               0.0007               0.0311    A(PC) =   0.0121
 A(DIA)          0.0055              -0.0012               0.0016    A(PC) =   0.0020
             ----------           ----------           ----------
 A(Tot)        -24.8101             -61.3393            -108.4776    A(iso)=  -64.8757
 Orientation: 
  X           0.2651959           -0.1533708            0.9519183
  Y           0.9641752            0.0484387           -0.2608062
  Z          -0.0061096            0.9869808            0.1607221

Notes:  (1) The A matrix conforms to the "SAI" spin Hamiltonian convention.
        (2) Tensor is right-handed.

 -----------------------------------------------------------
 Nucleus   3H : A:ISTP=    1 I=  0.5 P=533.5514 MHz/au**3
                Q:ISTP=    2 I=  1.0 Q=  0.0029 barn     
 -----------------------------------------------------------
 Solving for nuclear perturbation:
Forming RHS of the CP-SCF equations         ... 
Calc. nucleus orbit integrals (SHARK)       ... done

------------------------------------------------------------------------------
                           ORCA CP-SCF CALCULATION
------------------------------------------------------------------------------

Input orbitals are from        ... /home/rwth0701/scratch/cs681498/orcajob__30556316-dMnP/8647.gbw
Input Perturbation             ... /home/rwth0701/scratch/cs681498/orcajob__30556316-dMnP/8647.pin.tmp
Wavefunction output            ... /home/rwth0701/scratch/cs681498/orcajob__30556316-dMnP/8647.pout.tmp
Perturbation mode              ... Imaginary perturbation
Solver                         ... POPLE
Max. number of iterations      ... 64
Convergence tolerance          ... 1.000e-03
Integral handling              ... Direct
DFT GridXC                     ... 1
COSX GridX                     ... 1
COSX IntAccX                   ... 3.067
COSX Algorithm                 ... Auto
Number of perturbations        ... 3
Number of operators            ... 2
Orbital ranges used for CP-SCF:
 Operator 0:  Orbitals   0...  4  to   5... 72
 Operator 1:  Orbitals   0...  3  to   4... 72
Variables per perturbation     ... 616
DFT calculation                         ... on
XC functional terms                     ... off
Hybrid DFT                              ... on
   Exchange mixing (SCF)                ...  0.200
   Exchange mixing (CP-SCF)             ...  0.200
   GGA exch. scaling(SCF)               ...  0.720
   GGA exch. scaling (CP-SCF)           ...  0.720
   GGA corr. scaling (SCF)              ...  0.810
   GGA corr. scaling (CP-SCF)           ...  0.810

CP-SCF GRID
-----------

General Integration Accuracy     IntAcc      ... 3.467
Radial Grid Type                 RadialGrid  ... OptM3 with GC (2021)
Angular Grid (max. ang.)         AngularGrid ... 1 (Lebedev-50)
Angular grid pruning method      GridPruning ... 4 (adaptive)
Weight generation scheme         WeightScheme... Becke
Basis function cutoff            BFCut       ... 1.0000e-10
Integration weight cutoff        WCut        ... 1.0000e-14
Angular grids for H and He will be reduced by one unit
Partially contracted basis set               ... off
Rotationally invariant grid construction     ... off

Total number of grid points                  ...     2341
Total number of batches                      ...       39
Average number of points per batch           ...       60
Average number of grid points per atom       ...      585

CP-SCF GRIDX
------------

General Integration Accuracy     IntAcc      ... 3.067
Radial Grid Type                 RadialGrid  ... OptM3 with GC (2021)
Angular Grid (max. ang.)         AngularGrid ... 1 (Lebedev-50)
Angular grid pruning method      GridPruning ... 4 (adaptive)
Weight generation scheme         WeightScheme... Becke
Basis function cutoff            BFCut       ... 1.0000e-10
Integration weight cutoff        WCut        ... 1.0000e-14
Angular grids for H and He will be reduced by one unit
Partially contracted basis set               ... on
Rotationally invariant grid construction     ... off

Total number of grid points                  ...     1075
Total number of batches                      ...       20
Average number of points per batch           ...       53
Average number of grid points per atom       ...      269

Memory available               ... 967.7 MB
Memory needed per perturbation ...   0.4 MB
Perturbations treated per batch... 3
Number of batches              ... 1
     CP-SCF ITERATION   0:   6.5677e-02 (   0.1 sec   0/  3 done)
     CP-SCF ITERATION   1:   2.6190e-03 (   0.1 sec   0/  3 done)
     CP-SCF ITERATION   2:   2.0656e-04 (   0.1 sec   3/  3 done)
                    *** THE CP-SCF HAS CONVERGED ***

Forming final perturbed densities           ... done
Transforming perturbed density to AO basis  ... done

 Raw HFC matrix (all values in MHz): 
 -----------------------------------
               -42.2941              28.0556               4.2156
                28.0539             -92.7541               5.5717
                 4.2157               5.5720             -66.0096

 A(FC)         -67.0330             -67.0330             -67.0330
 A(SD)          38.2376               0.3058             -38.5434
 A(ORB+DIA)      0.0119              -0.0006               0.0298    A(PC) =   0.0137
 A(ORB)          0.0071               0.0005               0.0285    A(PC) =   0.0120
 A(DIA)          0.0048              -0.0011               0.0013    A(PC) =   0.0017
             ----------           ----------           ----------
 A(Tot)        -28.7835             -66.7278            -105.5466    A(iso)=  -67.0193
 Orientation: 
  X           0.8982856           -0.1837501            0.3991476
  Y           0.4081379            0.0123416           -0.9128368
  Z           0.1628078            0.9828955            0.0860817

Notes:  (1) The A matrix conforms to the "SAI" spin Hamiltonian convention.
        (2) Tensor is right-handed.

 -----------------------------------------------------------
 Nucleus   0C : A:ISTP=   13 I=  0.5 P=134.1903 MHz/au**3
                Q:ISTP=   13 I=  0.5 Q=  0.0000 barn     
 -----------------------------------------------------------
 Solving for nuclear perturbation:
Forming RHS of the CP-SCF equations         ... 
Calc. nucleus orbit integrals (SHARK)       ... done

------------------------------------------------------------------------------
                           ORCA CP-SCF CALCULATION
------------------------------------------------------------------------------

Input orbitals are from        ... /home/rwth0701/scratch/cs681498/orcajob__30556316-dMnP/8647.gbw
Input Perturbation             ... /home/rwth0701/scratch/cs681498/orcajob__30556316-dMnP/8647.pin.tmp
Wavefunction output            ... /home/rwth0701/scratch/cs681498/orcajob__30556316-dMnP/8647.pout.tmp
Perturbation mode              ... Imaginary perturbation
Solver                         ... POPLE
Max. number of iterations      ... 64
Convergence tolerance          ... 1.000e-03
Integral handling              ... Direct
DFT GridXC                     ... 1
COSX GridX                     ... 1
COSX IntAccX                   ... 3.067
COSX Algorithm                 ... Auto
Number of perturbations        ... 3
Number of operators            ... 2
Orbital ranges used for CP-SCF:
 Operator 0:  Orbitals   0...  4  to   5... 72
 Operator 1:  Orbitals   0...  3  to   4... 72
Variables per perturbation     ... 616
DFT calculation                         ... on
XC functional terms                     ... off
Hybrid DFT                              ... on
   Exchange mixing (SCF)                ...  0.200
   Exchange mixing (CP-SCF)             ...  0.200
   GGA exch. scaling(SCF)               ...  0.720
   GGA exch. scaling (CP-SCF)           ...  0.720
   GGA corr. scaling (SCF)              ...  0.810
   GGA corr. scaling (CP-SCF)           ...  0.810

CP-SCF GRID
-----------

General Integration Accuracy     IntAcc      ... 3.467
Radial Grid Type                 RadialGrid  ... OptM3 with GC (2021)
Angular Grid (max. ang.)         AngularGrid ... 1 (Lebedev-50)
Angular grid pruning method      GridPruning ... 4 (adaptive)
Weight generation scheme         WeightScheme... Becke
Basis function cutoff            BFCut       ... 1.0000e-10
Integration weight cutoff        WCut        ... 1.0000e-14
Angular grids for H and He will be reduced by one unit
Partially contracted basis set               ... off
Rotationally invariant grid construction     ... off

Total number of grid points                  ...     2341
Total number of batches                      ...       39
Average number of points per batch           ...       60
Average number of grid points per atom       ...      585

CP-SCF GRIDX
------------

General Integration Accuracy     IntAcc      ... 3.067
Radial Grid Type                 RadialGrid  ... OptM3 with GC (2021)
Angular Grid (max. ang.)         AngularGrid ... 1 (Lebedev-50)
Angular grid pruning method      GridPruning ... 4 (adaptive)
Weight generation scheme         WeightScheme... Becke
Basis function cutoff            BFCut       ... 1.0000e-10
Integration weight cutoff        WCut        ... 1.0000e-14
Angular grids for H and He will be reduced by one unit
Partially contracted basis set               ... on
Rotationally invariant grid construction     ... off

Total number of grid points                  ...     1075
Total number of batches                      ...       20
Average number of points per batch           ...       53
Average number of grid points per atom       ...      269

Memory available               ... 967.6 MB
Memory needed per perturbation ...   0.4 MB
Perturbations treated per batch... 3
Number of batches              ... 1
     CP-SCF ITERATION   0:   1.1491e+00 (   0.1 sec   0/  3 done)
     CP-SCF ITERATION   1:   4.1986e-02 (   0.1 sec   0/  3 done)
     CP-SCF ITERATION   2:   3.2769e-03 (   0.1 sec   0/  3 done)
     CP-SCF ITERATION   3:   2.0284e-04 (   0.1 sec   3/  3 done)
                    *** THE CP-SCF HAS CONVERGED ***

Forming final perturbed densities           ... done
Transforming perturbed density to AO basis  ... done

 Raw HFC matrix (all values in MHz): 
 -----------------------------------
                12.2720              -1.5209             -38.0741
                -1.5209               5.5201               5.1497
               -38.0741               5.1497             241.3415

 A(FC)          86.4966              86.4966              86.4966
 A(SD)         -81.3273             -79.8103             161.1376
 A(ORB+DIA)     -0.1780              -0.1654              -0.0129    A(PC) =  -0.1187
 A(ORB)         -0.1784              -0.1657              -0.0128    A(PC) =  -0.1190
 A(DIA)          0.0004               0.0004              -0.0001    A(PC) =   0.0002
             ----------           ----------           ----------
 A(Tot)          4.9913               6.5210             247.6213    A(iso)=   86.3779
 Orientation: 
  X           0.5150754           -0.8421170           -0.1598007
  Y           0.8547258            0.5186135            0.0219961
  Z           0.0643515           -0.1479154            0.9869042

Notes:  (1) The A matrix conforms to the "SAI" spin Hamiltonian convention.
        (2) Tensor is right-handed.


--------------------------------------------------------------------------------
----------------------------------------------------------------------------
                           ORCA EULER ANGLE PROGRAM
----------------------------------------------------------------------------

Only g-tensor available        -->  using g-tensor as reference tensor

Reference tensor               ...  g

g-tensor ordering              ...  |g_min> --> |gx>
                                    |g_mid> --> |gy>
                                    |g_max> --> |gz>

A- and EFG-tensor ordering     ...  the axes |Ax>, |Qx>, |Ay>, etc. are assigned
                                    such that the Euler rotation is minimal. You
                                    can find the respective eigenvalues as Ax,
                                    EFGx, Ay, etc. in the tables below.
                                    The relation of |Ax>, |Ay>,  etc. to Amin, Amid, etc.
                                    (as printed in the ORCA EPR/NMR CALCULATION Output)
                                    is obtained in the detailed printout.

Euler rotation around          ...  z - y - z
   First rotation              -->  by alpha around z
   Second rotation             -->  by beta around y'
   Third rotation              -->  by gamma around z''
   Positive / Negative angle   -->  clockwise / counterclockwise rotation

Plot EFG-tensors                    (-)
Plot HFC-tensors                    (-)
Detailed Printout                   (-)

-------------------------------------------------------------------------
          Euler rotation of hyperfine tensor to g-tensor
-------------------------------------------------------------------------

-------------------------------------------------------------------
 Atom  |   Alpha    Beta    Gamma   |   Ax       Ay       Az 
       |          [degrees]         |           [MHz]         
-------------------------------------------------------------------
  1H       89.0     44.9    -91.2     -67.96   -29.58  -100.68
  2H      -89.9     18.7     90.6     -61.34   -24.81  -108.48
  3H       95.2     20.6    -96.1     -66.73  -105.55   -28.78
  0C      -90.7     34.8     89.8     247.62     4.99     6.52
-------------------------------------------------------------------


Maximum memory used throughout the entire EPRNMR-calculation: 67.6 MB

Timings for individual modules:

Sum of individual times         ...       20.105 sec (=   0.335 min)
GTO integral calculation        ...        3.787 sec (=   0.063 min)  18.8 %
Spin-Orbit-Coupling Matrices    ...        2.299 sec (=   0.038 min)  11.4 %
SCF iterations                  ...        7.973 sec (=   0.133 min)  39.7 %
EPR/NMR calculation             ...        6.046 sec (=   0.101 min)  30.1 %
                             ****ORCA TERMINATED NORMALLY****
TOTAL RUN TIME: 0 days 0 hours 0 minutes 22 seconds 164 msec
