Job execution start: Mon Oct 24 22:42:54 CEST 2022
Shared library path: /home/cs681498/orca:/opt/MPI/openmpi-4.1.1/linux/gcc_4.8.5/lib:/opt/MPI/openmpi-4.1.1/linux/gcc_4.8.5/lib/lib32
Slurm Job ID is: 30556518
Slurm Job name is: 16405
ncm0469

                                 *****************
                                 * O   R   C   A *
                                 *****************

                                            #,                                       
                                            ###                                      
                                            ####                                     
                                            #####                                    
                                            ######                                   
                                           ########,                                 
                                     ,,################,,,,,                         
                               ,,#################################,,                 
                          ,,##########################################,,             
                       ,#########################################, ''#####,          
                    ,#############################################,,   '####,        
                  ,##################################################,,,,####,       
                ,###########''''           ''''###############################       
              ,#####''   ,,,,##########,,,,          '''####'''          '####       
            ,##' ,,,,###########################,,,                        '##       
           ' ,,###''''                  '''############,,,                           
         ,,##''                                '''############,,,,        ,,,,,,###''
      ,#''                                            '''#######################'''  
     '                                                          ''''####''''         
             ,#######,   #######,   ,#######,      ##                                
            ,#'     '#,  ##    ##  ,#'     '#,    #''#        ######   ,####,        
            ##       ##  ##   ,#'  ##            #'  '#       #        #'  '#        
            ##       ##  #######   ##           ,######,      #####,   #    #        
            '#,     ,#'  ##    ##  '#,     ,#' ,#      #,         ##   #,  ,#        
             '#######'   ##     ##  '#######'  #'      '#     #####' # '####'        



                  #######################################################
                  #                        -***-                        #
                  #          Department of theory and spectroscopy      #
                  #    Directorship and core code : Frank Neese         #
                  #        Max Planck Institute fuer Kohlenforschung    #
                  #                Kaiser Wilhelm Platz 1               #
                  #                 D-45470 Muelheim/Ruhr               #
                  #                      Germany                        #
                  #                                                     #
                  #                  All rights reserved                #
                  #                        -***-                        #
                  #######################################################


                         Program Version 5.0.3 -  RELEASE  -


 With contributions from (in alphabetic order):
   Daniel Aravena         : Magnetic Suceptibility
   Michael Atanasov       : Ab Initio Ligand Field Theory (pilot matlab implementation)
   Alexander A. Auer      : GIAO ZORA, VPT2 properties, NMR spectrum
   Ute Becker             : Parallelization
   Giovanni Bistoni       : ED, misc. LED, open-shell LED, HFLD
   Martin Brehm           : Molecular dynamics
   Dmytro Bykov           : SCF Hessian
   Vijay G. Chilkuri      : MRCI spin determinant printing, contributions to CSF-ICE
   Dipayan Datta          : RHF DLPNO-CCSD density
   Achintya Kumar Dutta   : EOM-CC, STEOM-CC
   Dmitry Ganyushin       : Spin-Orbit,Spin-Spin,Magnetic field MRCI
   Miquel Garcia          : C-PCM and meta-GGA Hessian, CC/C-PCM, Gaussian charge scheme
   Yang Guo               : DLPNO-NEVPT2, F12-NEVPT2, CIM, IAO-localization
   Andreas Hansen         : Spin unrestricted coupled pair/coupled cluster methods
   Benjamin Helmich-Paris : MC-RPA, TRAH-SCF, COSX integrals
   Lee Huntington         : MR-EOM, pCC
   Robert Izsak           : Overlap fitted RIJCOSX, COSX-SCS-MP3, EOM
   Marcus Kettner         : VPT2
   Christian Kollmar      : KDIIS, OOCD, Brueckner-CCSD(T), CCSD density, CASPT2, CASPT2-K
   Simone Kossmann        : Meta GGA functionals, TD-DFT gradient, OOMP2, MP2 Hessian
   Martin Krupicka        : Initial AUTO-CI
   Lucas Lang             : DCDCAS
   Marvin Lechner         : AUTO-CI (C++ implementation), FIC-MRCC
   Dagmar Lenk            : GEPOL surface, SMD
   Dimitrios Liakos       : Extrapolation schemes; Compound Job, initial MDCI parallelization
   Dimitrios Manganas     : Further ROCIS development; embedding schemes
   Dimitrios Pantazis     : SARC Basis sets
   Anastasios Papadopoulos: AUTO-CI, single reference methods and gradients
   Taras Petrenko         : DFT Hessian,TD-DFT gradient, ASA, ECA, R-Raman, ABS, FL, XAS/XES, NRVS
   Peter Pinski           : DLPNO-MP2, DLPNO-MP2 Gradient
   Christoph Reimann      : Effective Core Potentials
   Marius Retegan         : Local ZFS, SOC
   Christoph Riplinger    : Optimizer, TS searches, QM/MM, DLPNO-CCSD(T), (RO)-DLPNO pert. Triples
   Tobias Risthaus        : Range-separated hybrids, TD-DFT gradient, RPA, STAB
   Michael Roemelt        : Original ROCIS implementation
   Masaaki Saitow         : Open-shell DLPNO-CCSD energy and density
   Barbara Sandhoefer     : DKH picture change effects
   Avijit Sen             : IP-ROCIS
   Kantharuban Sivalingam : CASSCF convergence, NEVPT2, FIC-MRCI
   Bernardo de Souza      : ESD, SOC TD-DFT
   Georgi Stoychev        : AutoAux, RI-MP2 NMR, DLPNO-MP2 response
   Willem Van den Heuvel  : Paramagnetic NMR
   Boris Wezisla          : Elementary symmetry handling
   Frank Wennmohs         : Technical directorship


 We gratefully acknowledge several colleagues who have allowed us to
 interface, adapt or use parts of their codes:
   Stefan Grimme, W. Hujo, H. Kruse, P. Pracht,  : VdW corrections, initial TS optimization,
                  C. Bannwarth, S. Ehlert          DFT functionals, gCP, sTDA/sTD-DF
   Ed Valeev, F. Pavosevic, A. Kumar             : LibInt (2-el integral package), F12 methods
   Garnet Chan, S. Sharma, J. Yang, R. Olivares  : DMRG
   Ulf Ekstrom                                   : XCFun DFT Library
   Mihaly Kallay                                 : mrcc  (arbitrary order and MRCC methods)
   Jiri Pittner, Ondrej Demel                    : Mk-CCSD
   Frank Weinhold                                : gennbo (NPA and NBO analysis)
   Christopher J. Cramer and Donald G. Truhlar   : smd solvation model
   Lars Goerigk                                  : TD-DFT with DH, B97 family of functionals
   V. Asgeirsson, H. Jonsson                     : NEB implementation
   FAccTs GmbH                                   : IRC, NEB, NEB-TS, DLPNO-Multilevel, CI-OPT
                                                   MM, QMMM, 2- and 3-layer-ONIOM, Crystal-QMMM,
                                                   LR-CPCM, SF, NACMEs, symmetry and pop. for TD-DFT,
                                                   nearIR, NL-DFT gradient (VV10), updates on ESD,
                                                   ML-optimized integration grids
   S Lehtola, MJT Oliveira, MAL Marques          : LibXC Library
   Liviu Ungur et al                             : ANISO software


 Your calculation uses the libint2 library for the computation of 2-el integrals
 For citations please refer to: http://libint.valeyev.net

 Your ORCA version has been built with support for libXC version: 5.1.0
 For citations please refer to: https://tddft.org/programs/libxc/

 This ORCA versions uses:
   CBLAS   interface :  Fast vector & matrix operations
   LAPACKE interface :  Fast linear algebra routines
   SCALAPACK package :  Parallel linear algebra routines
   Shared memory     :  Shared parallel matrices
   BLAS/LAPACK       :  OpenBLAS 0.3.15  USE64BITINT DYNAMIC_ARCH NO_AFFINITY SkylakeX SINGLE_THREADED
        Core in use  :  SkylakeX
   Copyright (c) 2011-2014, The OpenBLAS Project


================================================================================

----- Orbital basis set information -----
Your calculation utilizes the basis: EPR-III
   V. Barone, in Recent Advances in Density Functional Methods, Part 1 (ed. D. P. Chong), World Scientific, Singapore, 1995, p. 287.
   N. Rega, M. Cossi and V. Barone, J. Chem. Phys. 105, 11060 (1996).

----- AuxJ basis set information -----
Your calculation utilizes the AutoAux generation procedure.
  G. L. Stoychev, A. A. Auer, F. Neese, J. Chem. Theory Comput. 13, 554 (2017)

----- AuxC basis set information -----
Your calculation utilizes the AutoAux generation procedure.
  G. L. Stoychev, A. A. Auer, F. Neese, J. Chem. Theory Comput. 13, 554 (2017)

----- AuxJK basis set information -----
Your calculation utilizes the AutoAux generation procedure.
  G. L. Stoychev, A. A. Auer, F. Neese, J. Chem. Theory Comput. 13, 554 (2017)

================================================================================
                                        WARNINGS
                       Please study these warnings very carefully!
================================================================================


WARNING: your system is open-shell and RHF/RKS was chosen
  ===> : WILL SWITCH to UHF/UKS


INFO   : the flag for use of the SHARK integral package has been found!

================================================================================
                                       INPUT FILE
================================================================================
NAME = /home/rwth0701/scratch/cs681498/orcajob__30556518-9dkt/16405.inp
|  1> !B3LYP EPR-III Autoaux
|  2> !PAL4
|  3> 
|  4> * xyz 0 2
|  5>  C    -75.1598482367   -100.4724452081    -29.2089204294
|  6>  H    -76.2747285708   -100.5227419779    -29.2250354340
|  7>  H    -74.6658417999   -101.4764581814    -29.2786902467
|  8>  H    -74.6744162404    -99.4820600438    -29.1057304913
|  9> *
| 10> 
| 11> %EPRNMR
| 12>         GTENSOR   TRUE
| 13>         NUCLEI    = ALL H {AISO, ADIP, AORB}
| 14>         NUCLEI    = ALL C {AISO, ADIP, AORB}
| 15> END
| 16> 
| 17> 
| 18>                          ****END OF INPUT****
================================================================================

                       ****************************
                       * Single Point Calculation *
                       ****************************

---------------------------------
CARTESIAN COORDINATES (ANGSTROEM)
---------------------------------
  C    -75.159848  -100.472445  -29.208920
  H    -76.274729  -100.522742  -29.225035
  H    -74.665842  -101.476458  -29.278690
  H    -74.674416  -99.482060  -29.105730

----------------------------
CARTESIAN COORDINATES (A.U.)
----------------------------
  NO LB      ZA    FRAG     MASS         X           Y           Z
   0 C     6.0000    0    12.011  -142.031529  -189.865405  -55.196860
   1 H     1.0000    0     1.008  -144.138348  -189.960453  -55.227313
   2 H     1.0000    0     1.008  -141.097993  -191.762715  -55.328706
   3 H     1.0000    0     1.008  -141.114196  -187.993849  -55.001860

--------------------------------
INTERNAL COORDINATES (ANGSTROEM)
--------------------------------
 C      0   0   0     0.000000000000     0.00000000     0.00000000
 H      1   0   0     1.116130645484     0.00000000     0.00000000
 H      1   2   0     1.121138812797   113.50826312     0.00000000
 H      1   2   3     1.107770355273   118.64287603   181.38672995

---------------------------
INTERNAL COORDINATES (A.U.)
---------------------------
 C      0   0   0     0.000000000000     0.00000000     0.00000000
 H      1   0   0     2.109181249641     0.00000000     0.00000000
 H      1   2   0     2.118645314297   113.50826312     0.00000000
 H      1   2   3     2.093382590743   118.64287603   181.38672995

---------------------
BASIS SET INFORMATION
---------------------
There are 2 groups of distinct atoms

 Group   1 Type C   : 12s8p2d1f contracted to 8s5p2d1f pattern {51111111/41111/11/1}
 Group   2 Type H   : 7s2p contracted to 5s2p pattern {31111/11}

Atom   0C    basis set group =>   1
Atom   1H    basis set group =>   2
Atom   2H    basis set group =>   2
Atom   3H    basis set group =>   2
---------------------------------
AUXILIARY/J BASIS SET INFORMATION
---------------------------------
There are 2 groups of distinct atoms

 Group   1 Type C   : 20s17p16d8f3g contracted to 20s17p16d8f3g pattern {11111111111111111111/11111111111111111/1111111111111111/11111111/111}
 Group   2 Type H   : 17s7p3d contracted to 17s7p3d pattern {11111111111111111/1111111/111}

Atom   0C    basis set group =>   1
Atom   1H    basis set group =>   2
Atom   2H    basis set group =>   2
Atom   3H    basis set group =>   2
---------------------------------
AUXILIARY/C BASIS SET INFORMATION
---------------------------------
There are 2 groups of distinct atoms

 Group   1 Type C   : 20s17p16d8f3g contracted to 20s17p16d8f3g pattern {11111111111111111111/11111111111111111/1111111111111111/11111111/111}
 Group   2 Type H   : 17s7p3d contracted to 17s7p3d pattern {11111111111111111/1111111/111}

Atom   0C    basis set group =>   1
Atom   1H    basis set group =>   2
Atom   2H    basis set group =>   2
Atom   3H    basis set group =>   2
----------------------------------
AUXILIARY/JK BASIS SET INFORMATION
----------------------------------
There are 2 groups of distinct atoms

 Group   1 Type C   : 20s17p16d8f3g contracted to 20s17p16d8f3g pattern {11111111111111111111/11111111111111111/1111111111111111/11111111/111}
 Group   2 Type H   : 17s7p3d contracted to 17s7p3d pattern {11111111111111111/1111111/111}

Atom   0C    basis set group =>   1
Atom   1H    basis set group =>   2
Atom   2H    basis set group =>   2
Atom   3H    basis set group =>   2


           ************************************************************
           *        Program running with 4 parallel MPI-processes     *
           *              working on a common directory               *
           ************************************************************
------------------------------------------------------------------------------
                           ORCA GTO INTEGRAL CALCULATION
                           -- RI-GTO INTEGRALS CHOSEN --
------------------------------------------------------------------------------
------------------------------------------------------------------------------
                   ___                                                        
                  /   \      - P O W E R E D   B Y -                         
                 /     \                                                     
                 |  |  |   _    _      __       _____    __    __             
                 |  |  |  | |  | |    /  \     |  _  \  |  |  /  |          
                  \  \/   | |  | |   /    \    | | | |  |  | /  /          
                 / \  \   | |__| |  /  /\  \   | |_| |  |  |/  /          
                |  |  |   |  __  | /  /__\  \  |    /   |      \           
                |  |  |   | |  | | |   __   |  |    \   |  |\   \          
                \     /   | |  | | |  |  |  |  | |\  \  |  | \   \       
                 \___/    |_|  |_| |__|  |__|  |_| \__\ |__|  \__/        
                                                                              
                      - O R C A' S   B I G   F R I E N D -                    
                                      &                                       
                       - I N T E G R A L  F E E D E R -                       
                                                                              
 v1 FN, 2020, v2 2021                                                         
------------------------------------------------------------------------------


Reading SHARK input file /home/rwth0701/scratch/cs681498/orcajob__30556518-9dkt/16405.SHARKINP.tmp ... ok
----------------------
SHARK INTEGRAL PACKAGE
----------------------

Number of atoms                             ...      4
Number of basis functions                   ...     73
Number of shells                            ...     37
Maximum angular momentum                    ...      3
Integral batch strategy                     ... SHARK/LIBINT Hybrid
RI-J (if used) integral strategy            ... SPLIT-RIJ (Revised 2003 algorithm where possible)
Printlevel                                  ...      1
Contraction scheme used                     ... SEGMENTED contraction
Coulomb Range Separation                    ... NOT USED
Exchange Range Separation                   ... NOT USED
Finite Nucleus Model                        ... NOT USED
Auxiliary Coulomb fitting basis             ... AVAILABLE
   # of basis functions in Aux-J            ...    393
   # of shells in Aux-J                     ...    145
   Maximum angular momentum in Aux-J        ...      4
Auxiliary J/K fitting basis                 ... AVAILABLE
   # of basis functions in Aux-JK           ...    393
   # of shells in Aux-JK                    ...    145
   Maximum angular momentum in Aux-JK       ...      4
Auxiliary Correlation fitting basis         ... AVAILABLE
   # of basis functions in Aux-C            ...    393
   # of shells in Aux-C                     ...    145
   Maximum angular momentum in Aux-C        ...      4
Auxiliary 'external' fitting basis          ... NOT available
Integral threshold                          ...     1.000000e-10
Primitive cut-off                           ...     1.000000e-11
Primitive pair pre-selection threshold      ...     1.000000e-11

Calculating pre-screening integrals         ... done (  0.0 sec) Dimension = 37
Organizing shell pair data                  ... done (  0.0 sec)
Shell pair information
Total number of shell pairs                 ...       703
Shell pairs after pre-screening             ...       688
Total number of primitive shell pairs       ...      1300
Primitive shell pairs kept                  ...      1183
          la=0 lb=0:    261 shell pairs
          la=1 lb=0:    253 shell pairs
          la=1 lb=1:     66 shell pairs
          la=2 lb=0:     46 shell pairs
          la=2 lb=1:     22 shell pairs
          la=2 lb=2:      3 shell pairs
          la=3 lb=0:     23 shell pairs
          la=3 lb=1:     11 shell pairs
          la=3 lb=2:      2 shell pairs
          la=3 lb=3:      1 shell pairs

Calculating one electron integrals          ... done (  0.0 sec)
Calculating RI/J V-Matrix + Cholesky decomp.... done (  0.1 sec)
Calculating RI/JK V-Matrix + Cholesky decomp... done (  0.1 sec)
Calculating RI/C V-Matrix + Cholesky decomp.... done (  0.1 sec)
Calculating Nuclear repulsion               ... done (  0.0 sec) ENN=      9.366705209879 Eh

SHARK setup successfully completed in   0.5 seconds

Maximum memory used throughout the entire GTOINT-calculation: 13.7 MB


           ************************************************************
           *        Program running with 4 parallel MPI-processes     *
           *              working on a common directory               *
           ************************************************************
-------------------------------------------------------------------------------
                                 ORCA SCF
-------------------------------------------------------------------------------

------------
SCF SETTINGS
------------
Hamiltonian:
 Density Functional     Method          .... DFT(GTOs)
 Exchange Functional    Exchange        .... B88
   X-Alpha parameter    XAlpha          ....  0.666667
   Becke's b parameter  XBeta           ....  0.004200
 Correlation Functional Correlation     .... LYP
 LDA part of GGA corr.  LDAOpt          .... VWN-5
 Gradients option       PostSCFGGA      .... off
 Hybrid DFT is turned on
   Fraction HF Exchange ScalHFX         ....  0.200000
   Scaling of DF-GGA-X  ScalDFX         ....  0.720000
   Scaling of DF-GGA-C  ScalDFC         ....  0.810000
   Scaling of DF-LDA-C  ScalLDAC        ....  1.000000
   Perturbative correction              ....  0.000000
   Density functional embedding theory  .... OFF
   NL short-range parameter             ....  4.800000
 RI-approximation to the Coulomb term is turned on
   Number of AuxJ basis functions       .... 393
   RIJ-COSX (HFX calculated with COS-X)).... on


General Settings:
 Integral files         IntName         .... /home/rwth0701/scratch/cs681498/orcajob__30556518-9dkt/16405
 Hartree-Fock type      HFTyp           .... UHF
 Total Charge           Charge          ....    0
 Multiplicity           Mult            ....    2
 Number of Electrons    NEL             ....    9
 Basis Dimension        Dim             ....   73
 Nuclear Repulsion      ENuc            ....      9.3667052099 Eh

Convergence Acceleration:
 DIIS                   CNVDIIS         .... on
   Start iteration      DIISMaxIt       ....    12
   Startup error        DIISStart       ....  0.200000
   # of expansion vecs  DIISMaxEq       ....     5
   Bias factor          DIISBfac        ....   1.050
   Max. coefficient     DIISMaxC        ....  10.000
 Trust-Rad. Augm. Hess. CNVTRAH         .... auto
   Auto Start mean grad. ratio tolernc. ....  1.125000
   Auto Start start iteration           ....    20
   Auto Start num. interpolation iter.  ....    10
   Max. Number of Micro iterations      ....    16
   Max. Number of Macro iterations      .... Maxiter - #DIIS iter
   Number of Davidson start vectors     ....     2
   Converg. threshold I  (grad. norm)   ....   5.000e-05
   Converg. threshold II (energy diff.) ....   1.000e-06
   Grad. Scal. Fac. for Micro threshold ....   0.100
   Minimum threshold for Micro iter.    ....   0.010
   NR start threshold (gradient norm)   ....   0.001
   Initial trust radius                 ....   0.400
   Minimum AH scaling param. (alpha)    ....   1.000
   Maximum AH scaling param. (alpha)    .... 1000.000
   Orbital update algorithm             .... Taylor
   White noise on init. David. guess    .... on
   Maximum white noise                  ....   0.010
   Quad. conv. algorithm                .... NR
 SOSCF                  CNVSOSCF        .... off
 Level Shifting         CNVShift        .... on
   Level shift para.    LevelShift      ....    0.2500
   Turn off err/grad.   ShiftErr        ....    0.0010
 Zerner damping         CNVZerner       .... off
 Static damping         CNVDamp         .... on
   Fraction old density DampFac         ....    0.7000
   Max. Damping (<1)    DampMax         ....    0.9800
   Min. Damping (>=0)   DampMin         ....    0.0000
   Turn off err/grad.   DampErr         ....    0.1000
 Fernandez-Rico         CNVRico         .... off

SCF Procedure:
 Maximum # iterations   MaxIter         ....   125
 SCF integral mode      SCFMode         .... Direct
   Integral package                     .... SHARK and LIBINT hybrid scheme
 Reset frequency        DirectResetFreq ....    20
 Integral Threshold     Thresh          ....  1.000e-10 Eh
 Primitive CutOff       TCut            ....  1.000e-11 Eh

Convergence Tolerance:
 Convergence Check Mode ConvCheckMode   .... Total+1el-Energy
 Convergence forced     ConvForced      .... 0
 Energy Change          TolE            ....  1.000e-06 Eh
 1-El. energy change                    ....  1.000e-03 Eh
 DIIS Error             TolErr          ....  1.000e-06


Diagonalization of the overlap matrix:
Smallest eigenvalue                        ... 1.771e-03
Time for diagonalization                   ...    0.001 sec
Threshold for overlap eigenvalues          ... 1.000e-08
Number of eigenvalues below threshold      ... 0
Time for construction of square roots      ...    0.009 sec
Total time needed                          ...    0.011 sec

Time for model grid setup =    0.041 sec

------------------------------
INITIAL GUESS: MODEL POTENTIAL
------------------------------
Loading Hartree-Fock densities                     ... done
Calculating cut-offs                               ... done
Initializing the effective Hamiltonian             ... done
Setting up the integral package (SHARK)            ... done
Starting the Coulomb interaction                   ... done (   0.0 sec)
Reading the grid                                   ... done
Mapping shells                                     ... done
Starting the XC term evaluation                    ... done (   0.0 sec)
  promolecular density results
     # of electrons  =      8.998432293
     EX              =     -5.954764686
     EC              =     -0.259119133
     EX+EC           =     -6.213883818
Transforming the Hamiltonian                       ... done (   0.0 sec)
Diagonalizing the Hamiltonian                      ... done (   0.0 sec)
Back transforming the eigenvectors                 ... done (   0.0 sec)
Now organizing SCF variables                       ... done
                      ------------------
                      INITIAL GUESS DONE (   0.1 sec)
                      ------------------
-------------------
DFT GRID GENERATION
-------------------

General Integration Accuracy     IntAcc      ... 4.388
Radial Grid Type                 RadialGrid  ... OptM3 with GC (2021)
Angular Grid (max. ang.)         AngularGrid ... 4 (Lebedev-302)
Angular grid pruning method      GridPruning ... 4 (adaptive)
Weight generation scheme         WeightScheme... Becke
Basis function cutoff            BFCut       ... 1.0000e-10
Integration weight cutoff        WCut        ... 1.0000e-14
Angular grids for H and He will be reduced by one unit
Partially contracted basis set               ... off
Rotationally invariant grid construction     ... off

Total number of grid points                  ...    17028
Total number of batches                      ...      269
Average number of points per batch           ...       63
Average number of grid points per atom       ...     4257
Time for grid setup =    0.148 sec

--------------------
COSX GRID GENERATION
--------------------

GRIDX 1
-------
General Integration Accuracy     IntAcc      ... 3.816
Radial Grid Type                 RadialGrid  ... OptM3 with GC (2021)
Angular Grid (max. ang.)         AngularGrid ... 1 (Lebedev-50)
Angular grid pruning method      GridPruning ... 4 (adaptive)
Weight generation scheme         WeightScheme... Becke
Basis function cutoff            BFCut       ... 1.0000e-10
Integration weight cutoff        WCut        ... 1.0000e-14
Angular grids for H and He will be reduced by one unit
Partially contracted basis set               ... on
Rotationally invariant grid construction     ... off

Total number of grid points                  ...     2141
Total number of batches                      ...       35
Average number of points per batch           ...       61
Average number of grid points per atom       ...      535
UseSFitting                                  ... on

GRIDX 2
-------
General Integration Accuracy     IntAcc      ... 4.020
Radial Grid Type                 RadialGrid  ... OptM3 with GC (2021)
Angular Grid (max. ang.)         AngularGrid ... 2 (Lebedev-110)
Angular grid pruning method      GridPruning ... 4 (adaptive)
Weight generation scheme         WeightScheme... Becke
Basis function cutoff            BFCut       ... 1.0000e-10
Integration weight cutoff        WCut        ... 1.0000e-14
Angular grids for H and He will be reduced by one unit
Partially contracted basis set               ... on
Rotationally invariant grid construction     ... off

Total number of grid points                  ...     5034
Total number of batches                      ...       81
Average number of points per batch           ...       62
Average number of grid points per atom       ...     1258
UseSFitting                                  ... on

GRIDX 3
-------
General Integration Accuracy     IntAcc      ... 4.338
Radial Grid Type                 RadialGrid  ... OptM3 with GC (2021)
Angular Grid (max. ang.)         AngularGrid ... 3 (Lebedev-194)
Angular grid pruning method      GridPruning ... 4 (adaptive)
Weight generation scheme         WeightScheme... Becke
Basis function cutoff            BFCut       ... 1.0000e-10
Integration weight cutoff        WCut        ... 1.0000e-14
Angular grids for H and He will be reduced by one unit
Partially contracted basis set               ... on
Rotationally invariant grid construction     ... off

Total number of grid points                  ...    11739
Total number of batches                      ...      186
Average number of points per batch           ...       63
Average number of grid points per atom       ...     2935
UseSFitting                                  ... on

Time for X-Grid setup             =    0.219 sec

--------------
SCF ITERATIONS
--------------
ITER       Energy         Delta-E        Max-DP      RMS-DP      [F,P]     Damp
               ***  Starting incremental Fock matrix formation  ***
  0    -39.7884026283   0.000000000000 0.01420255  0.00047204  0.0831889 0.7000
  1    -39.8047892079  -0.016386579553 0.00904100  0.00035362  0.0436678 0.7000
                               ***Turning on DIIS***
  2    -39.8119773316  -0.007188123677 0.01680131  0.00061646  0.0179333 0.0000
  3    -39.8218380438  -0.009860712211 0.00822412  0.00026886  0.0268682 0.0000
  4    -39.8249140338  -0.003075990005 0.00289816  0.00007546  0.0055002 0.0000
  5    -39.8250375320  -0.000123498197 0.00105108  0.00003285  0.0018653 0.0000
  6    -39.8250552143  -0.000017682297 0.00089239  0.00002609  0.0008068 0.0000
               *** Restarting incremental Fock matrix formation ***
                                   *** Resetting DIIS ***
  7    -39.8250536783   0.000001535919 0.00008302  0.00000283  0.0000839 0.0000
                 **** Energy Check signals convergence ****

               *****************************************************
               *                     SUCCESS                       *
               *           SCF CONVERGED AFTER   8 CYCLES          *
               *****************************************************

Old exchange energy                            =     -1.233244701 Eh
New exchange energy                            =     -1.233242238 Eh
Exchange energy change after final integration =      0.000002463 Eh
Total energy after final integration           =    -39.825051289 Eh
Final COS-X integration done in                =     0.204 sec

----------------
TOTAL SCF ENERGY
----------------

Total Energy       :          -39.82505129 Eh           -1083.69474 eV

Components:
Nuclear Repulsion  :            9.36670521 Eh             254.88101 eV
Electronic Energy  :          -49.19175650 Eh           -1338.57575 eV
One Electron Energy:          -71.08173709 Eh           -1934.23240 eV
Two Electron Energy:           21.88998059 Eh             595.65665 eV
Max COSX asymmetry :            0.00000004 Eh               0.00000 eV

Virial components:
Potential Energy   :          -79.30807088 Eh           -2158.08232 eV
Kinetic Energy     :           39.48301959 Eh            1074.38758 eV
Virial Ratio       :            2.00866275


DFT components:
N(Alpha)           :        5.000000068258 electrons
N(Beta)            :        4.000000646406 electrons
N(Total)           :        9.000000714664 electrons
E(X)               :       -4.883895450975 Eh       
E(C)               :       -0.307958580149 Eh       
E(XC)              :       -5.191854031124 Eh       
DFET-embed. en.    :        0.000000000000 Eh       

---------------
SCF CONVERGENCE
---------------

  Last Energy change         ...   -7.3575e-08  Tolerance :   1.0000e-06
  Last MAX-Density change    ...    0.0000e+00  Tolerance :   1.0000e-05
  Last RMS-Density change    ...    0.0000e+00  Tolerance :   1.0000e-06
  Last DIIS Error            ...    5.9568e-05  Tolerance :   1.0000e-06

             **** THE GBW FILE WAS UPDATED (/home/rwth0701/scratch/cs681498/orcajob__30556518-9dkt/16405.gbw) ****
             **** DENSITY /home/rwth0701/scratch/cs681498/orcajob__30556518-9dkt/16405.scfp WAS UPDATED ****
             **** ENERGY FILE WAS UPDATED (/home/rwth0701/scratch/cs681498/orcajob__30556518-9dkt/16405.en.tmp) ****
----------------------
UHF SPIN CONTAMINATION
----------------------

Warning: in a DFT calculation there is little theoretical justification to 
         calculate <S**2> as in Hartree-Fock theory. We will do it anyways
         but you should keep in mind that the values have only limited relevance

Expectation value of <S**2>     :     0.754010
Ideal value S*(S+1) for S=0.5   :     0.750000
Deviation                       :     0.004010

             **** THE GBW FILE WAS UPDATED (/home/rwth0701/scratch/cs681498/orcajob__30556518-9dkt/16405.gbw) ****
             **** DENSITY /home/rwth0701/scratch/cs681498/orcajob__30556518-9dkt/16405.scfp WAS UPDATED ****
----------------
ORBITAL ENERGIES
----------------
                 SPIN UP ORBITALS
  NO   OCC          E(Eh)            E(eV) 
   0   1.0000     -10.194620      -277.4097 
   1   1.0000      -0.678409       -18.4604 
   2   1.0000      -0.426717       -11.6116 
   3   1.0000      -0.403629       -10.9833 
   4   1.0000      -0.234873        -6.3912 
   5   0.0000      -0.000368        -0.0100 
   6   0.0000       0.035211         0.9582 
   7   0.0000       0.038007         1.0342 
   8   0.0000       0.047313         1.2875 
   9   0.0000       0.081081         2.2063 
  10   0.0000       0.088776         2.4157 
  11   0.0000       0.093573         2.5463 
  12   0.0000       0.219499         5.9729 
  13   0.0000       0.226275         6.1573 
  14   0.0000       0.246778         6.7152 
  15   0.0000       0.275568         7.4986 
  16   0.0000       0.289701         7.8832 
  17   0.0000       0.307461         8.3664 
  18   0.0000       0.327287         8.9059 
  19   0.0000       0.546450        14.8697 
  20   0.0000       0.561132        15.2692 
  21   0.0000       0.737884        20.0788 
  22   0.0000       0.747182        20.3319 
  23   0.0000       0.773912        21.0592 
  24   0.0000       0.813298        22.1310 
  25   0.0000       0.868721        23.6391 
  26   0.0000       0.887206        24.1421 
  27   0.0000       0.935397        25.4535 
  28   0.0000       0.944055        25.6890 
  29   0.0000       1.049466        28.5574 
  30   0.0000       1.067461        29.0471 
  31   0.0000       1.108507        30.1640 
  32   0.0000       1.158931        31.5361 
  33   0.0000       1.160624        31.5822 
  34   0.0000       1.436734        39.0955 
  35   0.0000       1.452247        39.5176 
  36   0.0000       1.481625        40.3171 
  37   0.0000       1.696519        46.1646 
  38   0.0000       1.706144        46.4265 
  39   0.0000       1.742674        47.4206 
  40   0.0000       2.725764        74.1718 
  41   0.0000       2.736877        74.4742 
  42   0.0000       2.876426        78.2715 
  43   0.0000       2.888531        78.6009 
  44   0.0000       2.933377        79.8213 
  45   0.0000       2.970302        80.8260 
  46   0.0000       2.972602        80.8886 
  47   0.0000       3.149718        85.7082 
  48   0.0000       3.158302        85.9418 
  49   0.0000       3.256168        88.6048 
  50   0.0000       3.259524        88.6962 
  51   0.0000       3.677526       100.0706 
  52   0.0000       3.718066       101.1737 
  53   0.0000       3.770294       102.5949 
  54   0.0000       3.851551       104.8060 
  55   0.0000       3.920598       106.6849 
  56   0.0000       3.993588       108.6711 
  57   0.0000       4.061307       110.5138 
  58   0.0000       4.088885       111.2642 
  59   0.0000       4.100279       111.5743 
  60   0.0000       4.530270       123.2749 
  61   0.0000       5.014614       136.4546 
  62   0.0000       5.288448       143.9060 
  63   0.0000       5.310532       144.5069 
  64   0.0000       5.470725       148.8660 
  65   0.0000       6.027988       164.0299 
  66   0.0000       6.066766       165.0851 
  67   0.0000       7.627044       207.5424 
  68   0.0000      29.010284       789.4100 
  69   0.0000      37.050847      1008.2048 
  70   0.0000      37.187529      1011.9241 
  71   0.0000      37.200861      1012.2869 
  72   0.0000     133.454614      3631.4847 

                 SPIN DOWN ORBITALS
  NO   OCC          E(Eh)            E(eV) 
   0   1.0000     -10.179981      -277.0114 
   1   1.0000      -0.638560       -17.3761 
   2   1.0000      -0.417801       -11.3690 
   3   1.0000      -0.394327       -10.7302 
   4   0.0000      -0.076994        -2.0951 
   5   0.0000       0.003150         0.0857 
   6   0.0000       0.034928         0.9504 
   7   0.0000       0.037665         1.0249 
   8   0.0000       0.060672         1.6510 
   9   0.0000       0.083566         2.2739 
  10   0.0000       0.092176         2.5082 
  11   0.0000       0.095587         2.6011 
  12   0.0000       0.220738         6.0066 
  13   0.0000       0.227564         6.1923 
  14   0.0000       0.264918         7.2088 
  15   0.0000       0.295651         8.0451 
  16   0.0000       0.310227         8.4417 
  17   0.0000       0.312503         8.5036 
  18   0.0000       0.341075         9.2811 
  19   0.0000       0.572317        15.5735 
  20   0.0000       0.587564        15.9884 
  21   0.0000       0.739351        20.1188 
  22   0.0000       0.748246        20.3608 
  23   0.0000       0.799974        21.7684 
  24   0.0000       0.811889        22.0926 
  25   0.0000       0.872270        23.7357 
  26   0.0000       0.891173        24.2500 
  27   0.0000       0.953143        25.9363 
  28   0.0000       0.961883        26.1742 
  29   0.0000       1.075138        29.2560 
  30   0.0000       1.122648        30.5488 
  31   0.0000       1.132959        30.8294 
  32   0.0000       1.171729        31.8844 
  33   0.0000       1.172473        31.9046 
  34   0.0000       1.445632        39.3376 
  35   0.0000       1.472330        40.0641 
  36   0.0000       1.487841        40.4862 
  37   0.0000       1.704106        46.3711 
  38   0.0000       1.715486        46.6807 
  39   0.0000       1.748365        47.5754 
  40   0.0000       2.766642        75.2842 
  41   0.0000       2.777592        75.5821 
  42   0.0000       2.879311        78.3500 
  43   0.0000       2.929352        79.7117 
  44   0.0000       2.971765        80.8658 
  45   0.0000       2.983915        81.1965 
  46   0.0000       3.024291        82.2951 
  47   0.0000       3.202249        87.1376 
  48   0.0000       3.211426        87.3873 
  49   0.0000       3.314670        90.1967 
  50   0.0000       3.318435        90.2992 
  51   0.0000       3.676873       100.0528 
  52   0.0000       3.768891       102.5567 
  53   0.0000       3.776820       102.7725 
  54   0.0000       3.853690       104.8642 
  55   0.0000       3.933213       107.0282 
  56   0.0000       4.007498       109.0496 
  57   0.0000       4.063942       110.5855 
  58   0.0000       4.091414       111.3330 
  59   0.0000       4.126289       112.2820 
  60   0.0000       4.529906       123.2650 
  61   0.0000       5.036637       137.0539 
  62   0.0000       5.287443       143.8786 
  63   0.0000       5.309416       144.4766 
  64   0.0000       5.466175       148.7422 
  65   0.0000       6.029979       164.0841 
  66   0.0000       6.068114       165.1218 
  67   0.0000       7.661767       208.4873 
  68   0.0000      29.037152       790.1411 
  69   0.0000      37.038401      1007.8661 
  70   0.0000      37.174830      1011.5785 
  71   0.0000      37.188363      1011.9468 
  72   0.0000     133.462591      3631.7017 

                    ********************************
                    * MULLIKEN POPULATION ANALYSIS *
                    ********************************

--------------------------------------------
MULLIKEN ATOMIC CHARGES AND SPIN POPULATIONS
--------------------------------------------
   0 C :   -0.428605    1.110253
   1 H :    0.135730   -0.037241
   2 H :    0.144185   -0.037333
   3 H :    0.148691   -0.035679
Sum of atomic charges         :    0.0000000
Sum of atomic spin populations:    1.0000000

-----------------------------------------------------
MULLIKEN REDUCED ORBITAL CHARGES AND SPIN POPULATIONS
-----------------------------------------------------
CHARGE
  0 C s       :     3.352579  s :     3.352579
      pz      :     0.970003  p :     3.048744
      px      :     1.042732
      py      :     1.036009
      dz2     :     0.005627  d :     0.024469
      dxz     :     0.000065
      dyz     :     0.000237
      dx2y2   :     0.011139
      dxy     :     0.007401
      f0      :     0.000038  f :     0.002813
      f+1     :     0.000608
      f-1     :     0.000692
      f+2     :     0.000022
      f-2     :     0.000029
      f+3     :     0.001379
      f-3     :     0.000045
  1 H s       :     0.838883  s :     0.838883
      pz      :     0.009795  p :     0.025387
      px      :     0.009514
      py      :     0.006077
  2 H s       :     0.829908  s :     0.829908
      pz      :     0.010069  p :     0.025908
      px      :     0.006699
      py      :     0.009140
  3 H s       :     0.824628  s :     0.824628
      pz      :     0.010532  p :     0.026681
      px      :     0.006882
      py      :     0.009268

SPIN
  0 C s       :     0.067945  s :     0.067945
      pz      :     0.962192  p :     1.046585
      px      :     0.038965
      py      :     0.045428
      dz2     :    -0.004649  d :    -0.002956
      dxz     :     0.000004
      dyz     :    -0.000113
      dx2y2   :     0.001139
      dxy     :     0.000663
      f0      :    -0.000027  f :    -0.001322
      f+1     :    -0.000593
      f-1     :    -0.000618
      f+2     :    -0.000013
      f-2     :    -0.000012
      f+3     :    -0.000063
      f-3     :     0.000004
  1 H s       :    -0.046488  s :    -0.046488
      pz      :     0.009746  p :     0.009247
      px      :    -0.000161
      py      :    -0.000339
  2 H s       :    -0.047009  s :    -0.047009
      pz      :     0.010012  p :     0.009676
      px      :    -0.000316
      py      :    -0.000019
  3 H s       :    -0.045944  s :    -0.045944
      pz      :     0.010440  p :     0.010265
      px      :    -0.000203
      py      :     0.000028


                     *******************************
                     * LOEWDIN POPULATION ANALYSIS *
                     *******************************

-------------------------------------------
LOEWDIN ATOMIC CHARGES AND SPIN POPULATIONS
-------------------------------------------
   0 C :   -0.180900    0.922969
   1 H :    0.058967    0.025778
   2 H :    0.063542    0.024603
   3 H :    0.058392    0.026650

----------------------------------------------------
LOEWDIN REDUCED ORBITAL CHARGES AND SPIN POPULATIONS
----------------------------------------------------
CHARGE
  0 C s       :     2.909402  s :     2.909402
      pz      :     0.884879  p :     3.174426
      px      :     1.149066
      py      :     1.140480
      dz2     :     0.006646  d :     0.089848
      dxz     :     0.000272
      dyz     :     0.000559
      dx2y2   :     0.047821
      dxy     :     0.034550
      f0      :     0.000254  f :     0.007224
      f+1     :     0.001805
      f-1     :     0.002022
      f+2     :     0.000063
      f-2     :     0.000065
      f+3     :     0.002795
      f-3     :     0.000221
  1 H s       :     0.804296  s :     0.804296
      pz      :     0.038782  p :     0.136737
      px      :     0.069981
      py      :     0.027974
  2 H s       :     0.801272  s :     0.801272
      pz      :     0.038353  p :     0.135186
      px      :     0.036593
      py      :     0.060240
  3 H s       :     0.802889  s :     0.802889
      pz      :     0.040079  p :     0.138719
      px      :     0.037041
      py      :     0.061600

SPIN
  0 C s       :     0.021159  s :     0.021159
      pz      :     0.876047  p :     0.910837
      px      :     0.015132
      py      :     0.019657
      dz2     :    -0.003947  d :    -0.007673
      dxz     :    -0.000013
      dyz     :    -0.000124
      dx2y2   :    -0.002134
      dxy     :    -0.001454
      f0      :     0.000125  f :    -0.001354
      f+1     :    -0.000561
      f-1     :    -0.000576
      f+2     :    -0.000015
      f-2     :    -0.000014
      f+3     :    -0.000303
      f-3     :    -0.000010
  1 H s       :    -0.018115  s :    -0.018115
      pz      :     0.038567  p :     0.043893
      px      :     0.004564
      py      :     0.000763
  2 H s       :    -0.018989  s :    -0.018989
      pz      :     0.038025  p :     0.043591
      px      :     0.001176
      py      :     0.004390
  3 H s       :    -0.018656  s :    -0.018656
      pz      :     0.039510  p :     0.045306
      px      :     0.001320
      py      :     0.004476


                      *****************************
                      * MAYER POPULATION ANALYSIS *
                      *****************************

  NA   - Mulliken gross atomic population
  ZA   - Total nuclear charge
  QA   - Mulliken gross atomic charge
  VA   - Mayer's total valence
  BVA  - Mayer's bonded valence
  FA   - Mayer's free valence

  ATOM       NA         ZA         QA         VA         BVA        FA
  0 C      6.4286     6.0000    -0.4286     3.8660     2.9174     0.9485
  1 H      0.8643     1.0000     0.1357     0.9791     0.9770     0.0021
  2 H      0.8558     1.0000     0.1442     0.9818     0.9796     0.0022
  3 H      0.8513     1.0000     0.1487     0.9835     0.9814     0.0021

  Mayer bond orders larger than 0.100000
B(  0-C ,  1-H ) :   0.9740 B(  0-C ,  2-H ) :   0.9721 B(  0-C ,  3-H ) :   0.9713 


-------
TIMINGS
-------

Total SCF time: 0 days 0 hours 0 min 6 sec 

Total time                  ....       6.263 sec
Sum of individual times     ....       5.391 sec  ( 86.1%)

Fock matrix formation       ....       4.633 sec  ( 74.0%)
  Split-RI-J                ....       0.471 sec  ( 10.2% of F)
  Chain of spheres X        ....       0.964 sec  ( 20.8% of F)
  XC integration            ....       2.047 sec  ( 44.2% of F)
    Basis function eval.    ....       0.110 sec  (  5.4% of XC)
    Density eval.           ....       0.111 sec  (  5.4% of XC)
    XC-Functional eval.     ....       0.102 sec  (  5.0% of XC)
    XC-Potential eval.      ....       0.157 sec  (  7.7% of XC)
Diagonalization             ....       0.057 sec  (  0.9%)
Density matrix formation    ....       0.010 sec  (  0.2%)
Population analysis         ....       0.133 sec  (  2.1%)
Initial guess               ....       0.042 sec  (  0.7%)
Orbital Transformation      ....       0.000 sec  (  0.0%)
Orbital Orthonormalization  ....       0.000 sec  (  0.0%)
DIIS solution               ....       0.107 sec  (  1.7%)
Grid generation             ....       0.409 sec  (  6.5%)

Maximum memory used throughout the entire SCF-calculation: 59.0 MB

-------------------------   --------------------
FINAL SINGLE POINT ENERGY       -39.825051288526
-------------------------   --------------------

   --->>> g-tensor requested, so NeedSOC=true

                            ***************************************
                            *     ORCA property calculations      *
                            ***************************************

                                    ---------------------
                                    Active property flags
                                    ---------------------
   (+) Dipole Moment
   (+) g-tensor
   (+) Nuclear properties (Hyperfine,Quadrupole)
   (+) Spin-Orbit Integrals are needed


------------------------------------------------------------------------------
                       ORCA ELECTRIC PROPERTIES CALCULATION
------------------------------------------------------------------------------

Dipole Moment Calculation                       ... on
Quadrupole Moment Calculation                   ... off
Polarizability Calculation                      ... off
GBWName                                         ... /home/rwth0701/scratch/cs681498/orcajob__30556518-9dkt/16405.gbw
Electron density                                ... /home/rwth0701/scratch/cs681498/orcajob__30556518-9dkt/16405.scfp
The origin for moment calculation is the CENTER OF MASS  = (-142.048689, -189.873504 -55.194668)

-------------
DIPOLE MOMENT
-------------
                                X             Y             Z
Electronic contribution:      0.09085       0.04520      -0.00643
Nuclear contribution   :     -0.10151      -0.04791       0.01297
                        -----------------------------------------
Total Dipole Moment    :     -0.01066      -0.00271       0.00654
                        -----------------------------------------
Magnitude (a.u.)       :      0.01279
Magnitude (Debye)      :      0.03252



--------------------
Rotational spectrum 
--------------------
 
Rotational constants in cm-1:     9.747321     8.308911     4.485817 
Rotational constants in MHz : 292217.321872 249094.895487 134481.406948 

 Dipole components along the rotational axes: 
x,y,z [a.u.] :    -0.003658    -0.010113     0.006932 
x,y,z [Debye]:    -0.009299    -0.025704     0.017619 

 


           ************************************************************
           *        Program running with 4 parallel MPI-processes     *
           *              working on a common directory               *
           ************************************************************
------------------------------------------------------------------------------
                         ORCA SPIN-ORBIT COUPLING CALCULATION
------------------------------------------------------------------------------

GBW file                                    ... /home/rwth0701/scratch/cs681498/orcajob__30556518-9dkt/16405.gbw
Input density                               ... /home/rwth0701/scratch/cs681498/orcajob__30556518-9dkt/16405.scfp
Output integrals                            ... /home/rwth0701/scratch/cs681498/orcajob__30556518-9dkt/16405
Operator type                               ... Mean-field/Effective potential
   One-Electron Terms                       ... 1
   Coulomb Contribution                     ... 3
   Exchange Contribution                    ... 3
   Correlation Contribution                 ... 0
   Maximum number of centers                ... 4
SHARK 2-electron RIJ-SOMF                   ... done (  0.2 sec)
SHARK 1-electron  MaxCenter=4               ... done (  0.0 sec)
SHARK 2-electron DoJ,X=0,1 MaxCenter=1      ... done (  0.1 sec)

Maximum memory used throughout the entire SOC-calculation: 11.3 MB
Total time for SOC:  2.437


           ************************************************************
           *        Program running with 4 parallel MPI-processes     *
           *              working on a common directory               *
           ************************************************************
------------------------------------------------------------------------------
                                ORCA EPR/NMR CALCULATION
------------------------------------------------------------------------------

GBWName                      ... /home/rwth0701/scratch/cs681498/orcajob__30556518-9dkt/16405.gbw
Electron density             ... /home/rwth0701/scratch/cs681498/orcajob__30556518-9dkt/16405.scfp
Spin density                 ... /home/rwth0701/scratch/cs681498/orcajob__30556518-9dkt/16405.scfr
Spin-orbit integrals         ... /home/rwth0701/scratch/cs681498/orcajob__30556518-9dkt/16405
Treatment of gauge           ... GIAO (approximations 1/2el = 0,0)
Details of the CP(SCF) procedure:
       Solver   = POPLE   
       MaxIter  =    64   
       Tolerance=    1.000e-03
       COSX Grid=     1   
       Op-0     =   0-  4 =>   5- 72
       Op-1     =   0-  3 =>   4- 72
Multiplicity                 ... 2
g-tensor                     ... 1
NMR chemical shifts          ... 0
NMR spin-spin couplings      ... 0
NMR spectrum                 ... 0
Number of nuclei for epr/nmr ... 4
   Nucleus:   1H 
       Hyperfine : Isotope=    1 I=   0.500 P= 533.551
       Quadrupole: Isotope=    2 I=   1.000 Q=   0.003
       Spin-Orbit: Zeff=   1.000
       Nuclear Spin-Spin: Gn=   0.000
       EPRNMR Input: 
       rho(0)=N f(grad)=N a(iso)=Y a(dip)=Y a(orb)=Y sigma(nmr)=N spin-spin(nmr)=all-N,DSO-N,PSO-N,FC-N,SD-N
   Nucleus:   2H 
       Hyperfine : Isotope=    1 I=   0.500 P= 533.551
       Quadrupole: Isotope=    2 I=   1.000 Q=   0.003
       Spin-Orbit: Zeff=   1.000
       Nuclear Spin-Spin: Gn=   0.000
       EPRNMR Input: 
       rho(0)=N f(grad)=N a(iso)=Y a(dip)=Y a(orb)=Y sigma(nmr)=N spin-spin(nmr)=all-N,DSO-N,PSO-N,FC-N,SD-N
   Nucleus:   3H 
       Hyperfine : Isotope=    1 I=   0.500 P= 533.551
       Quadrupole: Isotope=    2 I=   1.000 Q=   0.003
       Spin-Orbit: Zeff=   1.000
       Nuclear Spin-Spin: Gn=   0.000
       EPRNMR Input: 
       rho(0)=N f(grad)=N a(iso)=Y a(dip)=Y a(orb)=Y sigma(nmr)=N spin-spin(nmr)=all-N,DSO-N,PSO-N,FC-N,SD-N
   Nucleus:   0C 
       Hyperfine : Isotope=   13 I=   0.500 P= 134.190
       Quadrupole: Isotope=   13 I=   0.500 Q=   0.000
       Spin-Orbit: Zeff=   3.600
       Nuclear Spin-Spin: Gn=   0.000
       EPRNMR Input: 
       rho(0)=N f(grad)=N a(iso)=Y a(dip)=Y a(orb)=Y sigma(nmr)=N spin-spin(nmr)=all-N,DSO-N,PSO-N,FC-N,SD-N
Forming RHS of the CP-SCF equations         ... 
Calculating right hand sides for GIAO treatment        ... 
  Entering RightHandSide GIAO. ScalHFX=    0.2000 NeedHFX=1
     -> 1-electron GIAO integrals will be done analytically
     -> RIJCOSX used in SCF. Same chosen for GIAO calculation.
     Making grid for GIAO integrations   ...

GRID GIAO
---------

General Integration Accuracy     IntAcc      ... 4.388
Radial Grid Type                 RadialGrid  ... OptM3 with GC (2021)
Angular Grid (max. ang.)         AngularGrid ... 4 (Lebedev-302)
Angular grid pruning method      GridPruning ... 4 (adaptive)
Weight generation scheme         WeightScheme... Becke
Basis function cutoff            BFCut       ... 1.0000e-10
Integration weight cutoff        WCut        ... 1.0000e-14
Angular grids for H and He will be reduced by one unit
Partially contracted basis set               ... off
Rotationally invariant grid construction     ... off

Total number of grid points                  ...    17028
Total number of batches                      ...      269
Average number of points per batch           ...       63
Average number of grid points per atom       ...     4257

  One-electron GIAO integrals (SHARK)     ... done
  Calculating G(B)[P]                     ... (RI-J: SHARK-ok) (COSX-ok) (add-J+K:ok) => dG/dB done
  DFT XC-terms                            ... done
  Extracting occupied and virtual blocks  ... 
  Operator  0  NO=   5 NV=  68 
  Operator  1  NO=   4 NV=  69 
  Transforming and RHS contribution       ... done
  Adding eps_i * S(B)_ai terms            ... done
  Projecting overlap derivatives          ... done
  Building G[dS/dB_ij] (COSX)             ... done
  Transforming to MO basis                ... done
  Summing G[dS/dB_ij] into RHS contribs.  ... done

  GIAO profiling information: 
    Total GIAO time               ...       0.8 sec
       GIAO 1-electron integrals  ...       0.0 sec (  1.4%)
       GIAO G(dS/dB) terms        ...       0.1 sec ( 12.5%)
       GIAO RI-J                  ...       0.1 sec ( 14.0%)
       GIAO COSX                  ...       0.1 sec ( 18.8%)
       GIAO XC-terms              ...       0.3 sec ( 36.6%)

  GIAO right hand side done


------------------------------------------------------------------------------
                           ORCA CP-SCF CALCULATION
------------------------------------------------------------------------------

Input orbitals are from        ... /home/rwth0701/scratch/cs681498/orcajob__30556518-9dkt/16405.gbw
Input Perturbation             ... /home/rwth0701/scratch/cs681498/orcajob__30556518-9dkt/16405.pin.tmp
Wavefunction output            ... /home/rwth0701/scratch/cs681498/orcajob__30556518-9dkt/16405.pout.tmp
Perturbation mode              ... Imaginary perturbation
Solver                         ... POPLE
Max. number of iterations      ... 64
Convergence tolerance          ... 1.000e-03
Integral handling              ... Direct
DFT GridXC                     ... 1
COSX GridX                     ... 1
COSX IntAccX                   ... 3.067
COSX Algorithm                 ... Auto
Number of perturbations        ... 3
Number of operators            ... 2
Orbital ranges used for CP-SCF:
 Operator 0:  Orbitals   0...  4  to   5... 72
 Operator 1:  Orbitals   0...  3  to   4... 72
Variables per perturbation     ... 616
DFT calculation                         ... on
XC functional terms                     ... off
Hybrid DFT                              ... on
   Exchange mixing (SCF)                ...  0.200
   Exchange mixing (CP-SCF)             ...  0.200
   GGA exch. scaling(SCF)               ...  0.720
   GGA exch. scaling (CP-SCF)           ...  0.720
   GGA corr. scaling (SCF)              ...  0.810
   GGA corr. scaling (CP-SCF)           ...  0.810

CP-SCF GRID
-----------

General Integration Accuracy     IntAcc      ... 3.467
Radial Grid Type                 RadialGrid  ... OptM3 with GC (2021)
Angular Grid (max. ang.)         AngularGrid ... 1 (Lebedev-50)
Angular grid pruning method      GridPruning ... 4 (adaptive)
Weight generation scheme         WeightScheme... Becke
Basis function cutoff            BFCut       ... 1.0000e-10
Integration weight cutoff        WCut        ... 1.0000e-14
Angular grids for H and He will be reduced by one unit
Partially contracted basis set               ... off
Rotationally invariant grid construction     ... off

Total number of grid points                  ...     2334
Total number of batches                      ...       38
Average number of points per batch           ...       61
Average number of grid points per atom       ...      584

CP-SCF GRIDX
------------

General Integration Accuracy     IntAcc      ... 3.067
Radial Grid Type                 RadialGrid  ... OptM3 with GC (2021)
Angular Grid (max. ang.)         AngularGrid ... 1 (Lebedev-50)
Angular grid pruning method      GridPruning ... 4 (adaptive)
Weight generation scheme         WeightScheme... Becke
Basis function cutoff            BFCut       ... 1.0000e-10
Integration weight cutoff        WCut        ... 1.0000e-14
Angular grids for H and He will be reduced by one unit
Partially contracted basis set               ... on
Rotationally invariant grid construction     ... off

Total number of grid points                  ...     1070
Total number of batches                      ...       20
Average number of points per batch           ...       53
Average number of grid points per atom       ...      268

Memory available               ... 1014.6 MB
Memory needed per perturbation ...   0.4 MB
Perturbations treated per batch... 3
Number of batches              ... 1
     CP-SCF ITERATION   0:   1.1266e+01 (   0.1 sec   0/  3 done)
     CP-SCF ITERATION   1:   8.8019e-02 (   0.1 sec   0/  3 done)
     CP-SCF ITERATION   2:   4.2382e-03 (   0.1 sec   0/  3 done)
     CP-SCF ITERATION   3:   1.7541e-04 (   0.1 sec   3/  3 done)
                    *** THE CP-SCF HAS CONVERGED ***

Forming final perturbed densities           ... done
Transforming perturbed density to AO basis  ... done

Magnetic field perturbation calculated in  1.241 sec
GIAO: Diamagnetic terms      (analytic)     (SHARK) ... done
GIAO: 1el-Paramagnetic terms (analytic)     (SHARK) ... done

-------------------
ELECTRONIC G-MATRIX
-------------------

 The g-matrix: 
              2.0028666    0.0000035    0.0000105
              0.0000017    2.0028901    0.0000566
              0.0000226    0.0000683    2.0022432

 gel          2.0023193    2.0023193    2.0023193
 gRMC        -0.0001280   -0.0001280   -0.0001280
 gDSO(tot)    0.0000344    0.0000706    0.0000709
 gPSO(tot)    0.0000111    0.0006046    0.0006345
             ----------   ----------   ----------
 g(tot)       2.0022368    2.0028664    2.0028966 iso=  2.0026666
 Delta-g     -0.0000825    0.0005472    0.0005773 iso=  0.0003473
 Orientation: 
  X          -0.0257990   -0.9898549   -0.1397201
  Y          -0.0950168    0.1415620   -0.9853588
  Z           0.9951413   -0.0121455   -0.0977050

Notes:  (1) The g-matrix conforms to the "BgS" spin Hamiltonian convention. 
        (2) The principal values are square roots of the eigenvalues of g*gT.
        (3) Orientations are eigenvectors of g*gT written as column vectors.
        (4) Individual contributions are projections of the full matrices onto the eigenvectors of g*gT.
        (5) Tensor is right-handed.


-----------------------------------------
ELECTRIC AND MAGNETIC HYPERFINE STRUCTURE
-----------------------------------------

 -----------------------------------------------------------
 Nucleus   1H : A:ISTP=    1 I=  0.5 P=533.5514 MHz/au**3
                Q:ISTP=    2 I=  1.0 Q=  0.0029 barn     
 -----------------------------------------------------------
 Solving for nuclear perturbation:
Forming RHS of the CP-SCF equations         ... 
Calc. nucleus orbit integrals (SHARK)       ... done

------------------------------------------------------------------------------
                           ORCA CP-SCF CALCULATION
------------------------------------------------------------------------------

Input orbitals are from        ... /home/rwth0701/scratch/cs681498/orcajob__30556518-9dkt/16405.gbw
Input Perturbation             ... /home/rwth0701/scratch/cs681498/orcajob__30556518-9dkt/16405.pin.tmp
Wavefunction output            ... /home/rwth0701/scratch/cs681498/orcajob__30556518-9dkt/16405.pout.tmp
Perturbation mode              ... Imaginary perturbation
Solver                         ... POPLE
Max. number of iterations      ... 64
Convergence tolerance          ... 1.000e-03
Integral handling              ... Direct
DFT GridXC                     ... 1
COSX GridX                     ... 1
COSX IntAccX                   ... 3.067
COSX Algorithm                 ... Auto
Number of perturbations        ... 3
Number of operators            ... 2
Orbital ranges used for CP-SCF:
 Operator 0:  Orbitals   0...  4  to   5... 72
 Operator 1:  Orbitals   0...  3  to   4... 72
Variables per perturbation     ... 616
DFT calculation                         ... on
XC functional terms                     ... off
Hybrid DFT                              ... on
   Exchange mixing (SCF)                ...  0.200
   Exchange mixing (CP-SCF)             ...  0.200
   GGA exch. scaling(SCF)               ...  0.720
   GGA exch. scaling (CP-SCF)           ...  0.720
   GGA corr. scaling (SCF)              ...  0.810
   GGA corr. scaling (CP-SCF)           ...  0.810

CP-SCF GRID
-----------

General Integration Accuracy     IntAcc      ... 3.467
Radial Grid Type                 RadialGrid  ... OptM3 with GC (2021)
Angular Grid (max. ang.)         AngularGrid ... 1 (Lebedev-50)
Angular grid pruning method      GridPruning ... 4 (adaptive)
Weight generation scheme         WeightScheme... Becke
Basis function cutoff            BFCut       ... 1.0000e-10
Integration weight cutoff        WCut        ... 1.0000e-14
Angular grids for H and He will be reduced by one unit
Partially contracted basis set               ... off
Rotationally invariant grid construction     ... off

Total number of grid points                  ...     2334
Total number of batches                      ...       38
Average number of points per batch           ...       61
Average number of grid points per atom       ...      584

CP-SCF GRIDX
------------

General Integration Accuracy     IntAcc      ... 3.067
Radial Grid Type                 RadialGrid  ... OptM3 with GC (2021)
Angular Grid (max. ang.)         AngularGrid ... 1 (Lebedev-50)
Angular grid pruning method      GridPruning ... 4 (adaptive)
Weight generation scheme         WeightScheme... Becke
Basis function cutoff            BFCut       ... 1.0000e-10
Integration weight cutoff        WCut        ... 1.0000e-14
Angular grids for H and He will be reduced by one unit
Partially contracted basis set               ... on
Rotationally invariant grid construction     ... off

Total number of grid points                  ...     1070
Total number of batches                      ...       20
Average number of points per batch           ...       53
Average number of grid points per atom       ...      268

Memory available               ... 968.0 MB
Memory needed per perturbation ...   0.4 MB
Perturbations treated per batch... 3
Number of batches              ... 1
     CP-SCF ITERATION   0:   6.0350e-02 (   0.1 sec   0/  3 done)
     CP-SCF ITERATION   1:   2.0240e-03 (   0.1 sec   1/  3 done)
     CP-SCF ITERATION   2:   1.4013e-04 (   0.1 sec   3/  3 done)
                    *** THE CP-SCF HAS CONVERGED ***

Forming final perturbed densities           ... done
Transforming perturbed density to AO basis  ... done

 Raw HFC matrix (all values in MHz): 
 -----------------------------------
               -27.2763               3.4703               0.6373
                 3.4703            -101.8817              -3.1307
                 0.6373              -3.1307             -65.5944

 A(FC)         -64.9309             -64.9309             -64.9309
 A(SD)          37.8110              -0.3977             -37.4133
 A(ORB+DIA)      0.0110              -0.0006               0.0301    A(PC) =   0.0135
 A(ORB)          0.0065               0.0005               0.0288    A(PC) =   0.0119
 A(DIA)          0.0046              -0.0011               0.0013    A(PC) =   0.0016
             ----------           ----------           ----------
 A(Tot)        -27.1089             -65.3292            -102.3142    A(iso)=  -64.9174
 Orientation: 
  X           0.9988674            0.0088269           -0.0467543
  Y           0.0458224            0.0861668            0.9952264
  Z           0.0128135           -0.9962416            0.0856647

Notes:  (1) The A matrix conforms to the "SAI" spin Hamiltonian convention.
        (2) Tensor is right-handed.

 -----------------------------------------------------------
 Nucleus   2H : A:ISTP=    1 I=  0.5 P=533.5514 MHz/au**3
                Q:ISTP=    2 I=  1.0 Q=  0.0029 barn     
 -----------------------------------------------------------
 Solving for nuclear perturbation:
Forming RHS of the CP-SCF equations         ... 
Calc. nucleus orbit integrals (SHARK)       ... done

------------------------------------------------------------------------------
                           ORCA CP-SCF CALCULATION
------------------------------------------------------------------------------

Input orbitals are from        ... /home/rwth0701/scratch/cs681498/orcajob__30556518-9dkt/16405.gbw
Input Perturbation             ... /home/rwth0701/scratch/cs681498/orcajob__30556518-9dkt/16405.pin.tmp
Wavefunction output            ... /home/rwth0701/scratch/cs681498/orcajob__30556518-9dkt/16405.pout.tmp
Perturbation mode              ... Imaginary perturbation
Solver                         ... POPLE
Max. number of iterations      ... 64
Convergence tolerance          ... 1.000e-03
Integral handling              ... Direct
DFT GridXC                     ... 1
COSX GridX                     ... 1
COSX IntAccX                   ... 3.067
COSX Algorithm                 ... Auto
Number of perturbations        ... 3
Number of operators            ... 2
Orbital ranges used for CP-SCF:
 Operator 0:  Orbitals   0...  4  to   5... 72
 Operator 1:  Orbitals   0...  3  to   4... 72
Variables per perturbation     ... 616
DFT calculation                         ... on
XC functional terms                     ... off
Hybrid DFT                              ... on
   Exchange mixing (SCF)                ...  0.200
   Exchange mixing (CP-SCF)             ...  0.200
   GGA exch. scaling(SCF)               ...  0.720
   GGA exch. scaling (CP-SCF)           ...  0.720
   GGA corr. scaling (SCF)              ...  0.810
   GGA corr. scaling (CP-SCF)           ...  0.810

CP-SCF GRID
-----------

General Integration Accuracy     IntAcc      ... 3.467
Radial Grid Type                 RadialGrid  ... OptM3 with GC (2021)
Angular Grid (max. ang.)         AngularGrid ... 1 (Lebedev-50)
Angular grid pruning method      GridPruning ... 4 (adaptive)
Weight generation scheme         WeightScheme... Becke
Basis function cutoff            BFCut       ... 1.0000e-10
Integration weight cutoff        WCut        ... 1.0000e-14
Angular grids for H and He will be reduced by one unit
Partially contracted basis set               ... off
Rotationally invariant grid construction     ... off

Total number of grid points                  ...     2334
Total number of batches                      ...       38
Average number of points per batch           ...       61
Average number of grid points per atom       ...      584

CP-SCF GRIDX
------------

General Integration Accuracy     IntAcc      ... 3.067
Radial Grid Type                 RadialGrid  ... OptM3 with GC (2021)
Angular Grid (max. ang.)         AngularGrid ... 1 (Lebedev-50)
Angular grid pruning method      GridPruning ... 4 (adaptive)
Weight generation scheme         WeightScheme... Becke
Basis function cutoff            BFCut       ... 1.0000e-10
Integration weight cutoff        WCut        ... 1.0000e-14
Angular grids for H and He will be reduced by one unit
Partially contracted basis set               ... on
Rotationally invariant grid construction     ... off

Total number of grid points                  ...     1070
Total number of batches                      ...       20
Average number of points per batch           ...       53
Average number of grid points per atom       ...      268

Memory available               ... 967.8 MB
Memory needed per perturbation ...   0.4 MB
Perturbations treated per batch... 3
Number of batches              ... 1
     CP-SCF ITERATION   0:   6.0998e-02 (   0.1 sec   0/  3 done)
     CP-SCF ITERATION   1:   2.3653e-03 (   0.1 sec   1/  3 done)
     CP-SCF ITERATION   2:   2.1574e-04 (   0.1 sec   3/  3 done)
                    *** THE CP-SCF HAS CONVERGED ***

Forming final perturbed densities           ... done
Transforming perturbed density to AO basis  ... done

 Raw HFC matrix (all values in MHz): 
 -----------------------------------
               -90.3092             -29.3386              -2.8047
               -29.3384             -44.5618               1.2351
                -2.8047               1.2351             -68.3442

 A(FC)         -67.7516             -67.7516             -67.7516
 A(SD)          37.6500              -0.6277             -37.0223
 A(ORB+DIA)      0.0111              -0.0006               0.0292    A(PC) =   0.0132
 A(ORB)          0.0066               0.0005               0.0279    A(PC) =   0.0117
 A(DIA)          0.0045              -0.0011               0.0012    A(PC) =   0.0016
             ----------           ----------           ----------
 A(Tot)        -30.0905             -68.3799            -104.7447    A(iso)=  -67.7384
 Orientation: 
  X          -0.4394655           -0.0220276            0.8979893
  Y           0.8961753           -0.0788136            0.4366444
  Z           0.0611556            0.9966460            0.0543764

Notes:  (1) The A matrix conforms to the "SAI" spin Hamiltonian convention.
        (2) Tensor is right-handed.

 -----------------------------------------------------------
 Nucleus   3H : A:ISTP=    1 I=  0.5 P=533.5514 MHz/au**3
                Q:ISTP=    2 I=  1.0 Q=  0.0029 barn     
 -----------------------------------------------------------
 Solving for nuclear perturbation:
Forming RHS of the CP-SCF equations         ... 
Calc. nucleus orbit integrals (SHARK)       ... done

------------------------------------------------------------------------------
                           ORCA CP-SCF CALCULATION
------------------------------------------------------------------------------

Input orbitals are from        ... /home/rwth0701/scratch/cs681498/orcajob__30556518-9dkt/16405.gbw
Input Perturbation             ... /home/rwth0701/scratch/cs681498/orcajob__30556518-9dkt/16405.pin.tmp
Wavefunction output            ... /home/rwth0701/scratch/cs681498/orcajob__30556518-9dkt/16405.pout.tmp
Perturbation mode              ... Imaginary perturbation
Solver                         ... POPLE
Max. number of iterations      ... 64
Convergence tolerance          ... 1.000e-03
Integral handling              ... Direct
DFT GridXC                     ... 1
COSX GridX                     ... 1
COSX IntAccX                   ... 3.067
COSX Algorithm                 ... Auto
Number of perturbations        ... 3
Number of operators            ... 2
Orbital ranges used for CP-SCF:
 Operator 0:  Orbitals   0...  4  to   5... 72
 Operator 1:  Orbitals   0...  3  to   4... 72
Variables per perturbation     ... 616
DFT calculation                         ... on
XC functional terms                     ... off
Hybrid DFT                              ... on
   Exchange mixing (SCF)                ...  0.200
   Exchange mixing (CP-SCF)             ...  0.200
   GGA exch. scaling(SCF)               ...  0.720
   GGA exch. scaling (CP-SCF)           ...  0.720
   GGA corr. scaling (SCF)              ...  0.810
   GGA corr. scaling (CP-SCF)           ...  0.810

CP-SCF GRID
-----------

General Integration Accuracy     IntAcc      ... 3.467
Radial Grid Type                 RadialGrid  ... OptM3 with GC (2021)
Angular Grid (max. ang.)         AngularGrid ... 1 (Lebedev-50)
Angular grid pruning method      GridPruning ... 4 (adaptive)
Weight generation scheme         WeightScheme... Becke
Basis function cutoff            BFCut       ... 1.0000e-10
Integration weight cutoff        WCut        ... 1.0000e-14
Angular grids for H and He will be reduced by one unit
Partially contracted basis set               ... off
Rotationally invariant grid construction     ... off

Total number of grid points                  ...     2334
Total number of batches                      ...       38
Average number of points per batch           ...       61
Average number of grid points per atom       ...      584

CP-SCF GRIDX
------------

General Integration Accuracy     IntAcc      ... 3.067
Radial Grid Type                 RadialGrid  ... OptM3 with GC (2021)
Angular Grid (max. ang.)         AngularGrid ... 1 (Lebedev-50)
Angular grid pruning method      GridPruning ... 4 (adaptive)
Weight generation scheme         WeightScheme... Becke
Basis function cutoff            BFCut       ... 1.0000e-10
Integration weight cutoff        WCut        ... 1.0000e-14
Angular grids for H and He will be reduced by one unit
Partially contracted basis set               ... on
Rotationally invariant grid construction     ... off

Total number of grid points                  ...     1070
Total number of batches                      ...       20
Average number of points per batch           ...       53
Average number of grid points per atom       ...      268

Memory available               ... 967.7 MB
Memory needed per perturbation ...   0.4 MB
Perturbations treated per batch... 3
Number of batches              ... 1
     CP-SCF ITERATION   0:   6.4712e-02 (   0.1 sec   0/  3 done)
     CP-SCF ITERATION   1:   2.5406e-03 (   0.1 sec   1/  3 done)
     CP-SCF ITERATION   2:   2.2324e-04 (   0.1 sec   3/  3 done)
                    *** THE CP-SCF HAS CONVERGED ***

Forming final perturbed densities           ... done
Transforming perturbed density to AO basis  ... done

 Raw HFC matrix (all values in MHz): 
 -----------------------------------
               -91.6089              29.7972               2.3040
                29.7972             -45.1111               2.8515
                 2.3040               2.8516             -68.0656

 A(FC)         -68.2749             -68.2749             -68.2749
 A(SD)          38.0360              -0.1099             -37.9261
 A(ORB+DIA)      0.0105              -0.0006               0.0294    A(PC) =   0.0131
 A(ORB)          0.0058               0.0005               0.0281    A(PC) =   0.0115
 A(DIA)          0.0047              -0.0011               0.0013    A(PC) =   0.0016
             ----------           ----------           ----------
 A(Tot)        -30.2285             -68.3854            -106.1717    A(iso)=  -68.2619
 Orientation: 
  X           0.4376319           -0.0218407            0.8988889
  Y           0.8942231           -0.0939834           -0.4376439
  Z           0.0940391            0.9953342           -0.0215997

Notes:  (1) The A matrix conforms to the "SAI" spin Hamiltonian convention.
        (2) Tensor is right-handed.

 -----------------------------------------------------------
 Nucleus   0C : A:ISTP=   13 I=  0.5 P=134.1903 MHz/au**3
                Q:ISTP=   13 I=  0.5 Q=  0.0000 barn     
 -----------------------------------------------------------
 Solving for nuclear perturbation:
Forming RHS of the CP-SCF equations         ... 
Calc. nucleus orbit integrals (SHARK)       ... done

------------------------------------------------------------------------------
                           ORCA CP-SCF CALCULATION
------------------------------------------------------------------------------

Input orbitals are from        ... /home/rwth0701/scratch/cs681498/orcajob__30556518-9dkt/16405.gbw
Input Perturbation             ... /home/rwth0701/scratch/cs681498/orcajob__30556518-9dkt/16405.pin.tmp
Wavefunction output            ... /home/rwth0701/scratch/cs681498/orcajob__30556518-9dkt/16405.pout.tmp
Perturbation mode              ... Imaginary perturbation
Solver                         ... POPLE
Max. number of iterations      ... 64
Convergence tolerance          ... 1.000e-03
Integral handling              ... Direct
DFT GridXC                     ... 1
COSX GridX                     ... 1
COSX IntAccX                   ... 3.067
COSX Algorithm                 ... Auto
Number of perturbations        ... 3
Number of operators            ... 2
Orbital ranges used for CP-SCF:
 Operator 0:  Orbitals   0...  4  to   5... 72
 Operator 1:  Orbitals   0...  3  to   4... 72
Variables per perturbation     ... 616
DFT calculation                         ... on
XC functional terms                     ... off
Hybrid DFT                              ... on
   Exchange mixing (SCF)                ...  0.200
   Exchange mixing (CP-SCF)             ...  0.200
   GGA exch. scaling(SCF)               ...  0.720
   GGA exch. scaling (CP-SCF)           ...  0.720
   GGA corr. scaling (SCF)              ...  0.810
   GGA corr. scaling (CP-SCF)           ...  0.810

CP-SCF GRID
-----------

General Integration Accuracy     IntAcc      ... 3.467
Radial Grid Type                 RadialGrid  ... OptM3 with GC (2021)
Angular Grid (max. ang.)         AngularGrid ... 1 (Lebedev-50)
Angular grid pruning method      GridPruning ... 4 (adaptive)
Weight generation scheme         WeightScheme... Becke
Basis function cutoff            BFCut       ... 1.0000e-10
Integration weight cutoff        WCut        ... 1.0000e-14
Angular grids for H and He will be reduced by one unit
Partially contracted basis set               ... off
Rotationally invariant grid construction     ... off

Total number of grid points                  ...     2334
Total number of batches                      ...       38
Average number of points per batch           ...       61
Average number of grid points per atom       ...      584

CP-SCF GRIDX
------------

General Integration Accuracy     IntAcc      ... 3.067
Radial Grid Type                 RadialGrid  ... OptM3 with GC (2021)
Angular Grid (max. ang.)         AngularGrid ... 1 (Lebedev-50)
Angular grid pruning method      GridPruning ... 4 (adaptive)
Weight generation scheme         WeightScheme... Becke
Basis function cutoff            BFCut       ... 1.0000e-10
Integration weight cutoff        WCut        ... 1.0000e-14
Angular grids for H and He will be reduced by one unit
Partially contracted basis set               ... on
Rotationally invariant grid construction     ... off

Total number of grid points                  ...     1070
Total number of batches                      ...       20
Average number of points per batch           ...       53
Average number of grid points per atom       ...      268

Memory available               ... 967.6 MB
Memory needed per perturbation ...   0.4 MB
Perturbations treated per batch... 3
Number of batches              ... 1
     CP-SCF ITERATION   0:   1.1705e+00 (   0.1 sec   0/  3 done)
     CP-SCF ITERATION   1:   4.3096e-02 (   0.1 sec   0/  3 done)
     CP-SCF ITERATION   2:   3.2196e-03 (   0.1 sec   0/  3 done)
     CP-SCF ITERATION   3:   1.3660e-04 (   0.1 sec   3/  3 done)
                    *** THE CP-SCF HAS CONVERGED ***

Forming final perturbed densities           ... done
Transforming perturbed density to AO basis  ... done

 Raw HFC matrix (all values in MHz): 
 -----------------------------------
                11.3791               0.2184              -4.3502
                 0.2184              12.5000             -20.8971
                -4.3502             -20.8971             251.4327

 A(FC)          91.8934              91.8934              91.8934
 A(SD)         -81.0703             -80.3748             161.4450
 A(ORB+DIA)     -0.1756              -0.1794              -0.0135    A(PC) =  -0.1228
 A(ORB)         -0.1760              -0.1797              -0.0134    A(PC) =  -0.1231
 A(DIA)          0.0004               0.0004              -0.0001    A(PC) =   0.0002
             ----------           ----------           ----------
 A(Tot)         10.6476              11.3393             253.3249    A(iso)=   91.7706
 Orientation: 
  X           0.2359237            0.9716051            0.0179880
  Y           0.9677560           -0.2365896            0.0864504
  Z           0.0882514           -0.0029877           -0.9960937

Notes:  (1) The A matrix conforms to the "SAI" spin Hamiltonian convention.
        (2) Tensor is right-handed.


--------------------------------------------------------------------------------
----------------------------------------------------------------------------
                           ORCA EULER ANGLE PROGRAM
----------------------------------------------------------------------------

Only g-tensor available        -->  using g-tensor as reference tensor

Reference tensor               ...  g

g-tensor ordering              ...  |g_min> --> |gx>
                                    |g_mid> --> |gy>
                                    |g_max> --> |gz>

A- and EFG-tensor ordering     ...  the axes |Ax>, |Qx>, |Ay>, etc. are assigned
                                    such that the Euler rotation is minimal. You
                                    can find the respective eigenvalues as Ax,
                                    EFGx, Ay, etc. in the tables below.
                                    The relation of |Ax>, |Ay>,  etc. to Amin, Amid, etc.
                                    (as printed in the ORCA EPR/NMR CALCULATION Output)
                                    is obtained in the detailed printout.

Euler rotation around          ...  z - y - z
   First rotation              -->  by alpha around z
   Second rotation             -->  by beta around y'
   Third rotation              -->  by gamma around z''
   Positive / Negative angle   -->  clockwise / counterclockwise rotation

Plot EFG-tensors                    (-)
Plot HFC-tensors                    (-)
Detailed Printout                   (-)

-------------------------------------------------------------------------
          Euler rotation of hyperfine tensor to g-tensor
-------------------------------------------------------------------------

-------------------------------------------------------------------
 Atom  |   Alpha    Beta    Gamma   |   Ax       Ay       Az 
       |          [degrees]         |           [MHz]         
-------------------------------------------------------------------
  1H       93.4     10.7    -92.5     -65.33   -27.11  -102.31
  2H       91.7     34.1    -91.3     -68.38  -104.74   -30.09
  3H      -90.3     17.9     90.5     -68.39  -106.17   -30.23
  0C      -95.6      5.6     96.0     253.32    11.34    10.65
-------------------------------------------------------------------


Maximum memory used throughout the entire EPRNMR-calculation: 67.6 MB

Timings for individual modules:

Sum of individual times         ...       20.574 sec (=   0.343 min)
GTO integral calculation        ...        2.891 sec (=   0.048 min)  14.1 %
Spin-Orbit-Coupling Matrices    ...        2.426 sec (=   0.040 min)  11.8 %
SCF iterations                  ...        8.612 sec (=   0.144 min)  41.9 %
EPR/NMR calculation             ...        6.644 sec (=   0.111 min)  32.3 %
                             ****ORCA TERMINATED NORMALLY****
TOTAL RUN TIME: 0 days 0 hours 0 minutes 23 seconds 118 msec
