Job execution start: Mon Oct 24 17:43:06 CEST 2022
Shared library path: /home/cs681498/orca:/opt/MPI/openmpi-4.1.1/linux/gcc_4.8.5/lib:/opt/MPI/openmpi-4.1.1/linux/gcc_4.8.5/lib/lib32
Slurm Job ID is: 30556356
Slurm Job name is: 10042
ncm0636

                                 *****************
                                 * O   R   C   A *
                                 *****************

                                            #,                                       
                                            ###                                      
                                            ####                                     
                                            #####                                    
                                            ######                                   
                                           ########,                                 
                                     ,,################,,,,,                         
                               ,,#################################,,                 
                          ,,##########################################,,             
                       ,#########################################, ''#####,          
                    ,#############################################,,   '####,        
                  ,##################################################,,,,####,       
                ,###########''''           ''''###############################       
              ,#####''   ,,,,##########,,,,          '''####'''          '####       
            ,##' ,,,,###########################,,,                        '##       
           ' ,,###''''                  '''############,,,                           
         ,,##''                                '''############,,,,        ,,,,,,###''
      ,#''                                            '''#######################'''  
     '                                                          ''''####''''         
             ,#######,   #######,   ,#######,      ##                                
            ,#'     '#,  ##    ##  ,#'     '#,    #''#        ######   ,####,        
            ##       ##  ##   ,#'  ##            #'  '#       #        #'  '#        
            ##       ##  #######   ##           ,######,      #####,   #    #        
            '#,     ,#'  ##    ##  '#,     ,#' ,#      #,         ##   #,  ,#        
             '#######'   ##     ##  '#######'  #'      '#     #####' # '####'        



                  #######################################################
                  #                        -***-                        #
                  #          Department of theory and spectroscopy      #
                  #    Directorship and core code : Frank Neese         #
                  #        Max Planck Institute fuer Kohlenforschung    #
                  #                Kaiser Wilhelm Platz 1               #
                  #                 D-45470 Muelheim/Ruhr               #
                  #                      Germany                        #
                  #                                                     #
                  #                  All rights reserved                #
                  #                        -***-                        #
                  #######################################################


                         Program Version 5.0.3 -  RELEASE  -


 With contributions from (in alphabetic order):
   Daniel Aravena         : Magnetic Suceptibility
   Michael Atanasov       : Ab Initio Ligand Field Theory (pilot matlab implementation)
   Alexander A. Auer      : GIAO ZORA, VPT2 properties, NMR spectrum
   Ute Becker             : Parallelization
   Giovanni Bistoni       : ED, misc. LED, open-shell LED, HFLD
   Martin Brehm           : Molecular dynamics
   Dmytro Bykov           : SCF Hessian
   Vijay G. Chilkuri      : MRCI spin determinant printing, contributions to CSF-ICE
   Dipayan Datta          : RHF DLPNO-CCSD density
   Achintya Kumar Dutta   : EOM-CC, STEOM-CC
   Dmitry Ganyushin       : Spin-Orbit,Spin-Spin,Magnetic field MRCI
   Miquel Garcia          : C-PCM and meta-GGA Hessian, CC/C-PCM, Gaussian charge scheme
   Yang Guo               : DLPNO-NEVPT2, F12-NEVPT2, CIM, IAO-localization
   Andreas Hansen         : Spin unrestricted coupled pair/coupled cluster methods
   Benjamin Helmich-Paris : MC-RPA, TRAH-SCF, COSX integrals
   Lee Huntington         : MR-EOM, pCC
   Robert Izsak           : Overlap fitted RIJCOSX, COSX-SCS-MP3, EOM
   Marcus Kettner         : VPT2
   Christian Kollmar      : KDIIS, OOCD, Brueckner-CCSD(T), CCSD density, CASPT2, CASPT2-K
   Simone Kossmann        : Meta GGA functionals, TD-DFT gradient, OOMP2, MP2 Hessian
   Martin Krupicka        : Initial AUTO-CI
   Lucas Lang             : DCDCAS
   Marvin Lechner         : AUTO-CI (C++ implementation), FIC-MRCC
   Dagmar Lenk            : GEPOL surface, SMD
   Dimitrios Liakos       : Extrapolation schemes; Compound Job, initial MDCI parallelization
   Dimitrios Manganas     : Further ROCIS development; embedding schemes
   Dimitrios Pantazis     : SARC Basis sets
   Anastasios Papadopoulos: AUTO-CI, single reference methods and gradients
   Taras Petrenko         : DFT Hessian,TD-DFT gradient, ASA, ECA, R-Raman, ABS, FL, XAS/XES, NRVS
   Peter Pinski           : DLPNO-MP2, DLPNO-MP2 Gradient
   Christoph Reimann      : Effective Core Potentials
   Marius Retegan         : Local ZFS, SOC
   Christoph Riplinger    : Optimizer, TS searches, QM/MM, DLPNO-CCSD(T), (RO)-DLPNO pert. Triples
   Tobias Risthaus        : Range-separated hybrids, TD-DFT gradient, RPA, STAB
   Michael Roemelt        : Original ROCIS implementation
   Masaaki Saitow         : Open-shell DLPNO-CCSD energy and density
   Barbara Sandhoefer     : DKH picture change effects
   Avijit Sen             : IP-ROCIS
   Kantharuban Sivalingam : CASSCF convergence, NEVPT2, FIC-MRCI
   Bernardo de Souza      : ESD, SOC TD-DFT
   Georgi Stoychev        : AutoAux, RI-MP2 NMR, DLPNO-MP2 response
   Willem Van den Heuvel  : Paramagnetic NMR
   Boris Wezisla          : Elementary symmetry handling
   Frank Wennmohs         : Technical directorship


 We gratefully acknowledge several colleagues who have allowed us to
 interface, adapt or use parts of their codes:
   Stefan Grimme, W. Hujo, H. Kruse, P. Pracht,  : VdW corrections, initial TS optimization,
                  C. Bannwarth, S. Ehlert          DFT functionals, gCP, sTDA/sTD-DF
   Ed Valeev, F. Pavosevic, A. Kumar             : LibInt (2-el integral package), F12 methods
   Garnet Chan, S. Sharma, J. Yang, R. Olivares  : DMRG
   Ulf Ekstrom                                   : XCFun DFT Library
   Mihaly Kallay                                 : mrcc  (arbitrary order and MRCC methods)
   Jiri Pittner, Ondrej Demel                    : Mk-CCSD
   Frank Weinhold                                : gennbo (NPA and NBO analysis)
   Christopher J. Cramer and Donald G. Truhlar   : smd solvation model
   Lars Goerigk                                  : TD-DFT with DH, B97 family of functionals
   V. Asgeirsson, H. Jonsson                     : NEB implementation
   FAccTs GmbH                                   : IRC, NEB, NEB-TS, DLPNO-Multilevel, CI-OPT
                                                   MM, QMMM, 2- and 3-layer-ONIOM, Crystal-QMMM,
                                                   LR-CPCM, SF, NACMEs, symmetry and pop. for TD-DFT,
                                                   nearIR, NL-DFT gradient (VV10), updates on ESD,
                                                   ML-optimized integration grids
   S Lehtola, MJT Oliveira, MAL Marques          : LibXC Library
   Liviu Ungur et al                             : ANISO software


 Your calculation uses the libint2 library for the computation of 2-el integrals
 For citations please refer to: http://libint.valeyev.net

 Your ORCA version has been built with support for libXC version: 5.1.0
 For citations please refer to: https://tddft.org/programs/libxc/

 This ORCA versions uses:
   CBLAS   interface :  Fast vector & matrix operations
   LAPACKE interface :  Fast linear algebra routines
   SCALAPACK package :  Parallel linear algebra routines
   Shared memory     :  Shared parallel matrices
   BLAS/LAPACK       :  OpenBLAS 0.3.15  USE64BITINT DYNAMIC_ARCH NO_AFFINITY SkylakeX SINGLE_THREADED
        Core in use  :  SkylakeX
   Copyright (c) 2011-2014, The OpenBLAS Project


================================================================================

----- Orbital basis set information -----
Your calculation utilizes the basis: EPR-III
   V. Barone, in Recent Advances in Density Functional Methods, Part 1 (ed. D. P. Chong), World Scientific, Singapore, 1995, p. 287.
   N. Rega, M. Cossi and V. Barone, J. Chem. Phys. 105, 11060 (1996).

----- AuxJ basis set information -----
Your calculation utilizes the AutoAux generation procedure.
  G. L. Stoychev, A. A. Auer, F. Neese, J. Chem. Theory Comput. 13, 554 (2017)

----- AuxC basis set information -----
Your calculation utilizes the AutoAux generation procedure.
  G. L. Stoychev, A. A. Auer, F. Neese, J. Chem. Theory Comput. 13, 554 (2017)

----- AuxJK basis set information -----
Your calculation utilizes the AutoAux generation procedure.
  G. L. Stoychev, A. A. Auer, F. Neese, J. Chem. Theory Comput. 13, 554 (2017)

================================================================================
                                        WARNINGS
                       Please study these warnings very carefully!
================================================================================


WARNING: your system is open-shell and RHF/RKS was chosen
  ===> : WILL SWITCH to UHF/UKS


INFO   : the flag for use of the SHARK integral package has been found!

================================================================================
                                       INPUT FILE
================================================================================
NAME = /home/rwth0701/scratch/cs681498/orcajob__30556356-mr7g/10042.inp
|  1> !B3LYP EPR-III Autoaux
|  2> !PAL4
|  3> 
|  4> * xyz 0 2
|  5>  C    -37.6598036827    -57.4260312537    -20.0442247517
|  6>  H    -37.8437312877    -56.3103517024    -20.1352879536
|  7>  H    -38.5367689417    -58.0566098741    -20.0103931068
|  8>  H    -36.5867850200    -57.6786678548    -20.1135855657
|  9> *
| 10> 
| 11> %EPRNMR
| 12>         GTENSOR   TRUE
| 13>         NUCLEI    = ALL H {AISO, ADIP, AORB}
| 14>         NUCLEI    = ALL C {AISO, ADIP, AORB}
| 15> END
| 16> 
| 17> 
| 18>                          ****END OF INPUT****
================================================================================

                       ****************************
                       * Single Point Calculation *
                       ****************************

---------------------------------
CARTESIAN COORDINATES (ANGSTROEM)
---------------------------------
  C    -37.659804  -57.426031  -20.044225
  H    -37.843731  -56.310352  -20.135288
  H    -38.536769  -58.056610  -20.010393
  H    -36.586785  -57.678668  -20.113586

----------------------------
CARTESIAN COORDINATES (A.U.)
----------------------------
  NO LB      ZA    FRAG     MASS         X           Y           Z
   0 C     6.0000    0    12.011  -71.166715  -108.519472  -37.878095
   1 H     1.0000    0     1.008  -71.514288  -106.411143  -38.050180
   2 H     1.0000    0     1.008  -72.823939  -109.711093  -37.814163
   3 H     1.0000    0     1.008  -69.139004  -108.996886  -38.009168

--------------------------------
INTERNAL COORDINATES (ANGSTROEM)
--------------------------------
 C      0   0   0     0.000000000000     0.00000000     0.00000000
 H      1   0   0     1.134399723118     0.00000000     0.00000000
 H      1   2   0     1.080667405909   116.41169855     0.00000000
 H      1   2   3     1.104538467070   112.17397486   173.92919470

---------------------------
INTERNAL COORDINATES (A.U.)
---------------------------
 C      0   0   0     0.000000000000     0.00000000     0.00000000
 H      1   0   0     2.143704803089     0.00000000     0.00000000
 H      1   2   0     2.042165439024   116.41169855     0.00000000
 H      1   2   3     2.087275207143   112.17397486   173.92919470

---------------------
BASIS SET INFORMATION
---------------------
There are 2 groups of distinct atoms

 Group   1 Type C   : 12s8p2d1f contracted to 8s5p2d1f pattern {51111111/41111/11/1}
 Group   2 Type H   : 7s2p contracted to 5s2p pattern {31111/11}

Atom   0C    basis set group =>   1
Atom   1H    basis set group =>   2
Atom   2H    basis set group =>   2
Atom   3H    basis set group =>   2
---------------------------------
AUXILIARY/J BASIS SET INFORMATION
---------------------------------
There are 2 groups of distinct atoms

 Group   1 Type C   : 20s17p16d8f3g contracted to 20s17p16d8f3g pattern {11111111111111111111/11111111111111111/1111111111111111/11111111/111}
 Group   2 Type H   : 17s7p3d contracted to 17s7p3d pattern {11111111111111111/1111111/111}

Atom   0C    basis set group =>   1
Atom   1H    basis set group =>   2
Atom   2H    basis set group =>   2
Atom   3H    basis set group =>   2
---------------------------------
AUXILIARY/C BASIS SET INFORMATION
---------------------------------
There are 2 groups of distinct atoms

 Group   1 Type C   : 20s17p16d8f3g contracted to 20s17p16d8f3g pattern {11111111111111111111/11111111111111111/1111111111111111/11111111/111}
 Group   2 Type H   : 17s7p3d contracted to 17s7p3d pattern {11111111111111111/1111111/111}

Atom   0C    basis set group =>   1
Atom   1H    basis set group =>   2
Atom   2H    basis set group =>   2
Atom   3H    basis set group =>   2
----------------------------------
AUXILIARY/JK BASIS SET INFORMATION
----------------------------------
There are 2 groups of distinct atoms

 Group   1 Type C   : 20s17p16d8f3g contracted to 20s17p16d8f3g pattern {11111111111111111111/11111111111111111/1111111111111111/11111111/111}
 Group   2 Type H   : 17s7p3d contracted to 17s7p3d pattern {11111111111111111/1111111/111}

Atom   0C    basis set group =>   1
Atom   1H    basis set group =>   2
Atom   2H    basis set group =>   2
Atom   3H    basis set group =>   2


           ************************************************************
           *        Program running with 4 parallel MPI-processes     *
           *              working on a common directory               *
           ************************************************************
------------------------------------------------------------------------------
                           ORCA GTO INTEGRAL CALCULATION
                           -- RI-GTO INTEGRALS CHOSEN --
------------------------------------------------------------------------------
------------------------------------------------------------------------------
                   ___                                                        
                  /   \      - P O W E R E D   B Y -                         
                 /     \                                                     
                 |  |  |   _    _      __       _____    __    __             
                 |  |  |  | |  | |    /  \     |  _  \  |  |  /  |          
                  \  \/   | |  | |   /    \    | | | |  |  | /  /          
                 / \  \   | |__| |  /  /\  \   | |_| |  |  |/  /          
                |  |  |   |  __  | /  /__\  \  |    /   |      \           
                |  |  |   | |  | | |   __   |  |    \   |  |\   \          
                \     /   | |  | | |  |  |  |  | |\  \  |  | \   \       
                 \___/    |_|  |_| |__|  |__|  |_| \__\ |__|  \__/        
                                                                              
                      - O R C A' S   B I G   F R I E N D -                    
                                      &                                       
                       - I N T E G R A L  F E E D E R -                       
                                                                              
 v1 FN, 2020, v2 2021                                                         
------------------------------------------------------------------------------


Reading SHARK input file /home/rwth0701/scratch/cs681498/orcajob__30556356-mr7g/10042.SHARKINP.tmp ... ok
----------------------
SHARK INTEGRAL PACKAGE
----------------------

Number of atoms                             ...      4
Number of basis functions                   ...     73
Number of shells                            ...     37
Maximum angular momentum                    ...      3
Integral batch strategy                     ... SHARK/LIBINT Hybrid
RI-J (if used) integral strategy            ... SPLIT-RIJ (Revised 2003 algorithm where possible)
Printlevel                                  ...      1
Contraction scheme used                     ... SEGMENTED contraction
Coulomb Range Separation                    ... NOT USED
Exchange Range Separation                   ... NOT USED
Finite Nucleus Model                        ... NOT USED
Auxiliary Coulomb fitting basis             ... AVAILABLE
   # of basis functions in Aux-J            ...    393
   # of shells in Aux-J                     ...    145
   Maximum angular momentum in Aux-J        ...      4
Auxiliary J/K fitting basis                 ... AVAILABLE
   # of basis functions in Aux-JK           ...    393
   # of shells in Aux-JK                    ...    145
   Maximum angular momentum in Aux-JK       ...      4
Auxiliary Correlation fitting basis         ... AVAILABLE
   # of basis functions in Aux-C            ...    393
   # of shells in Aux-C                     ...    145
   Maximum angular momentum in Aux-C        ...      4
Auxiliary 'external' fitting basis          ... NOT available
Integral threshold                          ...     1.000000e-10
Primitive cut-off                           ...     1.000000e-11
Primitive pair pre-selection threshold      ...     1.000000e-11

Calculating pre-screening integrals         ... done (  0.0 sec) Dimension = 37
Organizing shell pair data                  ... done (  0.1 sec)
Shell pair information
Total number of shell pairs                 ...       703
Shell pairs after pre-screening             ...       688
Total number of primitive shell pairs       ...      1300
Primitive shell pairs kept                  ...      1183
          la=0 lb=0:    261 shell pairs
          la=1 lb=0:    253 shell pairs
          la=1 lb=1:     66 shell pairs
          la=2 lb=0:     46 shell pairs
          la=2 lb=1:     22 shell pairs
          la=2 lb=2:      3 shell pairs
          la=3 lb=0:     23 shell pairs
          la=3 lb=1:     11 shell pairs
          la=3 lb=2:      2 shell pairs
          la=3 lb=3:      1 shell pairs

Calculating one electron integrals          ... done (  0.0 sec)
Calculating RI/J V-Matrix + Cholesky decomp.... done (  0.2 sec)
Calculating RI/JK V-Matrix + Cholesky decomp... done (  0.3 sec)
Calculating RI/C V-Matrix + Cholesky decomp.... done (  0.3 sec)
Calculating Nuclear repulsion               ... done (  0.0 sec) ENN=      9.443402665717 Eh

SHARK setup successfully completed in   1.4 seconds

Maximum memory used throughout the entire GTOINT-calculation: 13.7 MB


           ************************************************************
           *        Program running with 4 parallel MPI-processes     *
           *              working on a common directory               *
           ************************************************************
-------------------------------------------------------------------------------
                                 ORCA SCF
-------------------------------------------------------------------------------

------------
SCF SETTINGS
------------
Hamiltonian:
 Density Functional     Method          .... DFT(GTOs)
 Exchange Functional    Exchange        .... B88
   X-Alpha parameter    XAlpha          ....  0.666667
   Becke's b parameter  XBeta           ....  0.004200
 Correlation Functional Correlation     .... LYP
 LDA part of GGA corr.  LDAOpt          .... VWN-5
 Gradients option       PostSCFGGA      .... off
 Hybrid DFT is turned on
   Fraction HF Exchange ScalHFX         ....  0.200000
   Scaling of DF-GGA-X  ScalDFX         ....  0.720000
   Scaling of DF-GGA-C  ScalDFC         ....  0.810000
   Scaling of DF-LDA-C  ScalLDAC        ....  1.000000
   Perturbative correction              ....  0.000000
   Density functional embedding theory  .... OFF
   NL short-range parameter             ....  4.800000
 RI-approximation to the Coulomb term is turned on
   Number of AuxJ basis functions       .... 393
   RIJ-COSX (HFX calculated with COS-X)).... on


General Settings:
 Integral files         IntName         .... /home/rwth0701/scratch/cs681498/orcajob__30556356-mr7g/10042
 Hartree-Fock type      HFTyp           .... UHF
 Total Charge           Charge          ....    0
 Multiplicity           Mult            ....    2
 Number of Electrons    NEL             ....    9
 Basis Dimension        Dim             ....   73
 Nuclear Repulsion      ENuc            ....      9.4434026657 Eh

Convergence Acceleration:
 DIIS                   CNVDIIS         .... on
   Start iteration      DIISMaxIt       ....    12
   Startup error        DIISStart       ....  0.200000
   # of expansion vecs  DIISMaxEq       ....     5
   Bias factor          DIISBfac        ....   1.050
   Max. coefficient     DIISMaxC        ....  10.000
 Trust-Rad. Augm. Hess. CNVTRAH         .... auto
   Auto Start mean grad. ratio tolernc. ....  1.125000
   Auto Start start iteration           ....    20
   Auto Start num. interpolation iter.  ....    10
   Max. Number of Micro iterations      ....    16
   Max. Number of Macro iterations      .... Maxiter - #DIIS iter
   Number of Davidson start vectors     ....     2
   Converg. threshold I  (grad. norm)   ....   5.000e-05
   Converg. threshold II (energy diff.) ....   1.000e-06
   Grad. Scal. Fac. for Micro threshold ....   0.100
   Minimum threshold for Micro iter.    ....   0.010
   NR start threshold (gradient norm)   ....   0.001
   Initial trust radius                 ....   0.400
   Minimum AH scaling param. (alpha)    ....   1.000
   Maximum AH scaling param. (alpha)    .... 1000.000
   Orbital update algorithm             .... Taylor
   White noise on init. David. guess    .... on
   Maximum white noise                  ....   0.010
   Quad. conv. algorithm                .... NR
 SOSCF                  CNVSOSCF        .... off
 Level Shifting         CNVShift        .... on
   Level shift para.    LevelShift      ....    0.2500
   Turn off err/grad.   ShiftErr        ....    0.0010
 Zerner damping         CNVZerner       .... off
 Static damping         CNVDamp         .... on
   Fraction old density DampFac         ....    0.7000
   Max. Damping (<1)    DampMax         ....    0.9800
   Min. Damping (>=0)   DampMin         ....    0.0000
   Turn off err/grad.   DampErr         ....    0.1000
 Fernandez-Rico         CNVRico         .... off

SCF Procedure:
 Maximum # iterations   MaxIter         ....   125
 SCF integral mode      SCFMode         .... Direct
   Integral package                     .... SHARK and LIBINT hybrid scheme
 Reset frequency        DirectResetFreq ....    20
 Integral Threshold     Thresh          ....  1.000e-10 Eh
 Primitive CutOff       TCut            ....  1.000e-11 Eh

Convergence Tolerance:
 Convergence Check Mode ConvCheckMode   .... Total+1el-Energy
 Convergence forced     ConvForced      .... 0
 Energy Change          TolE            ....  1.000e-06 Eh
 1-El. energy change                    ....  1.000e-03 Eh
 DIIS Error             TolErr          ....  1.000e-06


Diagonalization of the overlap matrix:
Smallest eigenvalue                        ... 1.703e-03
Time for diagonalization                   ...    0.001 sec
Threshold for overlap eigenvalues          ... 1.000e-08
Number of eigenvalues below threshold      ... 0
Time for construction of square roots      ...    0.011 sec
Total time needed                          ...    0.013 sec

Time for model grid setup =    0.119 sec

------------------------------
INITIAL GUESS: MODEL POTENTIAL
------------------------------
Loading Hartree-Fock densities                     ... done
Calculating cut-offs                               ... done
Initializing the effective Hamiltonian             ... done
Setting up the integral package (SHARK)            ... done
Starting the Coulomb interaction                   ... done (   0.0 sec)
Reading the grid                                   ... done
Mapping shells                                     ... done
Starting the XC term evaluation                    ... done (   0.0 sec)
  promolecular density results
     # of electrons  =      8.998915634
     EX              =     -5.958816830
     EC              =     -0.259440222
     EX+EC           =     -6.218257052
Transforming the Hamiltonian                       ... done (   0.0 sec)
Diagonalizing the Hamiltonian                      ... done (   0.0 sec)
Back transforming the eigenvectors                 ... done (   0.0 sec)
Now organizing SCF variables                       ... done
                      ------------------
                      INITIAL GUESS DONE (   0.2 sec)
                      ------------------
-------------------
DFT GRID GENERATION
-------------------

General Integration Accuracy     IntAcc      ... 4.388
Radial Grid Type                 RadialGrid  ... OptM3 with GC (2021)
Angular Grid (max. ang.)         AngularGrid ... 4 (Lebedev-302)
Angular grid pruning method      GridPruning ... 4 (adaptive)
Weight generation scheme         WeightScheme... Becke
Basis function cutoff            BFCut       ... 1.0000e-10
Integration weight cutoff        WCut        ... 1.0000e-14
Angular grids for H and He will be reduced by one unit
Partially contracted basis set               ... off
Rotationally invariant grid construction     ... off

Total number of grid points                  ...    17046
Total number of batches                      ...      268
Average number of points per batch           ...       63
Average number of grid points per atom       ...     4262
Time for grid setup =    0.315 sec

--------------------
COSX GRID GENERATION
--------------------

GRIDX 1
-------
General Integration Accuracy     IntAcc      ... 3.816
Radial Grid Type                 RadialGrid  ... OptM3 with GC (2021)
Angular Grid (max. ang.)         AngularGrid ... 1 (Lebedev-50)
Angular grid pruning method      GridPruning ... 4 (adaptive)
Weight generation scheme         WeightScheme... Becke
Basis function cutoff            BFCut       ... 1.0000e-10
Integration weight cutoff        WCut        ... 1.0000e-14
Angular grids for H and He will be reduced by one unit
Partially contracted basis set               ... on
Rotationally invariant grid construction     ... off

Total number of grid points                  ...     2147
Total number of batches                      ...       35
Average number of points per batch           ...       61
Average number of grid points per atom       ...      537
UseSFitting                                  ... on

GRIDX 2
-------
General Integration Accuracy     IntAcc      ... 4.020
Radial Grid Type                 RadialGrid  ... OptM3 with GC (2021)
Angular Grid (max. ang.)         AngularGrid ... 2 (Lebedev-110)
Angular grid pruning method      GridPruning ... 4 (adaptive)
Weight generation scheme         WeightScheme... Becke
Basis function cutoff            BFCut       ... 1.0000e-10
Integration weight cutoff        WCut        ... 1.0000e-14
Angular grids for H and He will be reduced by one unit
Partially contracted basis set               ... on
Rotationally invariant grid construction     ... off

Total number of grid points                  ...     5045
Total number of batches                      ...       81
Average number of points per batch           ...       62
Average number of grid points per atom       ...     1261
UseSFitting                                  ... on

GRIDX 3
-------
General Integration Accuracy     IntAcc      ... 4.338
Radial Grid Type                 RadialGrid  ... OptM3 with GC (2021)
Angular Grid (max. ang.)         AngularGrid ... 3 (Lebedev-194)
Angular grid pruning method      GridPruning ... 4 (adaptive)
Weight generation scheme         WeightScheme... Becke
Basis function cutoff            BFCut       ... 1.0000e-10
Integration weight cutoff        WCut        ... 1.0000e-14
Angular grids for H and He will be reduced by one unit
Partially contracted basis set               ... on
Rotationally invariant grid construction     ... off

Total number of grid points                  ...    11728
Total number of batches                      ...      186
Average number of points per batch           ...       63
Average number of grid points per atom       ...     2932
UseSFitting                                  ... on

Time for X-Grid setup             =    0.486 sec

--------------
SCF ITERATIONS
--------------
ITER       Energy         Delta-E        Max-DP      RMS-DP      [F,P]     Damp
               ***  Starting incremental Fock matrix formation  ***
  0    -39.7861752531   0.000000000000 0.01451820  0.00048078  0.0856484 0.7000
  1    -39.8031852338  -0.017009980687 0.00907881  0.00036001  0.0449459 0.7000
                               ***Turning on DIIS***
  2    -39.8106626004  -0.007477366618 0.01606920  0.00062841  0.0181839 0.0000
  3    -39.8209066412  -0.010244040814 0.00833834  0.00027244  0.0272945 0.0000
  4    -39.8240872821  -0.003180640904 0.00293983  0.00007640  0.0056098 0.0000
  5    -39.8242155927  -0.000128310539 0.00106267  0.00003289  0.0018909 0.0000
  6    -39.8242332569  -0.000017664268 0.00089402  0.00002593  0.0008117 0.0000
               *** Restarting incremental Fock matrix formation ***
                                   *** Resetting DIIS ***
  7    -39.8242394511  -0.000006194163 0.00008367  0.00000315  0.0000894 0.0000
                 **** Energy Check signals convergence ****

               *****************************************************
               *                     SUCCESS                       *
               *           SCF CONVERGED AFTER   8 CYCLES          *
               *****************************************************

Old exchange energy                            =     -1.235121005 Eh
New exchange energy                            =     -1.235123520 Eh
Exchange energy change after final integration =     -0.000002515 Eh
Total energy after final integration           =    -39.824242046 Eh
Final COS-X integration done in                =     0.220 sec

----------------
TOTAL SCF ENERGY
----------------

Total Energy       :          -39.82424205 Eh           -1083.67272 eV

Components:
Nuclear Repulsion  :            9.44340267 Eh             256.96805 eV
Electronic Energy  :          -49.26764471 Eh           -1340.64077 eV
One Electron Energy:          -71.22050923 Eh           -1938.00858 eV
Two Electron Energy:           21.95286451 Eh             597.36781 eV
Max COSX asymmetry :            0.00000006 Eh               0.00000 eV

Virial components:
Potential Energy   :          -79.34269864 Eh           -2159.02459 eV
Kinetic Energy     :           39.51845659 Eh            1075.35187 eV
Virial Ratio       :            2.00773779


DFT components:
N(Alpha)           :        5.000000944957 electrons
N(Beta)            :        4.000001192260 electrons
N(Total)           :        9.000002137217 electrons
E(X)               :       -4.890808332116 Eh       
E(C)               :       -0.308367764590 Eh       
E(XC)              :       -5.199176096706 Eh       
DFET-embed. en.    :        0.000000000000 Eh       

---------------
SCF CONVERGENCE
---------------

  Last Energy change         ...   -7.9952e-08  Tolerance :   1.0000e-06
  Last MAX-Density change    ...    0.0000e+00  Tolerance :   1.0000e-05
  Last RMS-Density change    ...    0.0000e+00  Tolerance :   1.0000e-06
  Last DIIS Error            ...    6.0986e-05  Tolerance :   1.0000e-06

             **** THE GBW FILE WAS UPDATED (/home/rwth0701/scratch/cs681498/orcajob__30556356-mr7g/10042.gbw) ****
             **** DENSITY /home/rwth0701/scratch/cs681498/orcajob__30556356-mr7g/10042.scfp WAS UPDATED ****
             **** ENERGY FILE WAS UPDATED (/home/rwth0701/scratch/cs681498/orcajob__30556356-mr7g/10042.en.tmp) ****
----------------------
UHF SPIN CONTAMINATION
----------------------

Warning: in a DFT calculation there is little theoretical justification to 
         calculate <S**2> as in Hartree-Fock theory. We will do it anyways
         but you should keep in mind that the values have only limited relevance

Expectation value of <S**2>     :     0.753905
Ideal value S*(S+1) for S=0.5   :     0.750000
Deviation                       :     0.003905

             **** THE GBW FILE WAS UPDATED (/home/rwth0701/scratch/cs681498/orcajob__30556356-mr7g/10042.gbw) ****
             **** DENSITY /home/rwth0701/scratch/cs681498/orcajob__30556356-mr7g/10042.scfp WAS UPDATED ****
----------------
ORBITAL ENERGIES
----------------
                 SPIN UP ORBITALS
  NO   OCC          E(Eh)            E(eV) 
   0   1.0000     -10.192325      -277.3473 
   1   1.0000      -0.681126       -18.5344 
   2   1.0000      -0.435527       -11.8513 
   3   1.0000      -0.398086       -10.8325 
   4   1.0000      -0.235372        -6.4048 
   5   0.0000      -0.000026        -0.0007 
   6   0.0000       0.034652         0.9429 
   7   0.0000       0.038553         1.0491 
   8   0.0000       0.047324         1.2878 
   9   0.0000       0.081114         2.2072 
  10   0.0000       0.089096         2.4244 
  11   0.0000       0.097020         2.6400 
  12   0.0000       0.216840         5.9005 
  13   0.0000       0.225894         6.1469 
  14   0.0000       0.248252         6.7553 
  15   0.0000       0.275769         7.5041 
  16   0.0000       0.287008         7.8099 
  17   0.0000       0.318704         8.6724 
  18   0.0000       0.329977         8.9791 
  19   0.0000       0.546520        14.8716 
  20   0.0000       0.562482        15.3059 
  21   0.0000       0.729446        19.8492 
  22   0.0000       0.743011        20.2183 
  23   0.0000       0.775749        21.1092 
  24   0.0000       0.818442        22.2709 
  25   0.0000       0.880255        23.9530 
  26   0.0000       0.894323        24.3358 
  27   0.0000       0.926215        25.2036 
  28   0.0000       0.952977        25.9318 
  29   0.0000       1.038782        28.2667 
  30   0.0000       1.068064        29.0635 
  31   0.0000       1.117814        30.4173 
  32   0.0000       1.167319        31.7644 
  33   0.0000       1.168350        31.7924 
  34   0.0000       1.425330        38.7852 
  35   0.0000       1.464038        39.8385 
  36   0.0000       1.492195        40.6047 
  37   0.0000       1.687218        45.9115 
  38   0.0000       1.721475        46.8437 
  39   0.0000       1.759437        47.8767 
  40   0.0000       2.720397        74.0258 
  41   0.0000       2.744198        74.6734 
  42   0.0000       2.866155        77.9920 
  43   0.0000       2.887700        78.5783 
  44   0.0000       2.914924        79.3191 
  45   0.0000       2.977495        81.0218 
  46   0.0000       2.997910        81.5773 
  47   0.0000       3.145290        85.5877 
  48   0.0000       3.152527        85.7846 
  49   0.0000       3.251735        88.4842 
  50   0.0000       3.261808        88.7583 
  51   0.0000       3.657389        99.5226 
  52   0.0000       3.716545       101.1323 
  53   0.0000       3.807659       103.6117 
  54   0.0000       3.837066       104.4119 
  55   0.0000       3.939918       107.2106 
  56   0.0000       3.985966       108.4637 
  57   0.0000       4.073776       110.8531 
  58   0.0000       4.138056       112.6022 
  59   0.0000       4.147832       112.8682 
  60   0.0000       4.529889       123.2646 
  61   0.0000       5.019638       136.5913 
  62   0.0000       5.287413       143.8778 
  63   0.0000       5.403558       147.0383 
  64   0.0000       5.511776       149.9831 
  65   0.0000       6.012818       163.6171 
  66   0.0000       6.107510       166.1938 
  67   0.0000       7.653037       208.2497 
  68   0.0000      29.023267       789.7632 
  69   0.0000      37.070994      1008.7530 
  70   0.0000      37.190225      1011.9975 
  71   0.0000      37.217502      1012.7397 
  72   0.0000     133.470982      3631.9301 

                 SPIN DOWN ORBITALS
  NO   OCC          E(Eh)            E(eV) 
   0   1.0000     -10.177723      -276.9499 
   1   1.0000      -0.641436       -17.4543 
   2   1.0000      -0.426411       -11.6032 
   3   1.0000      -0.388757       -10.5786 
   4   0.0000      -0.077410        -2.1064 
   5   0.0000       0.003362         0.0915 
   6   0.0000       0.034351         0.9347 
   7   0.0000       0.038205         1.0396 
   8   0.0000       0.060629         1.6498 
   9   0.0000       0.082647         2.2489 
  10   0.0000       0.095042         2.5862 
  11   0.0000       0.097240         2.6460 
  12   0.0000       0.218492         5.9455 
  13   0.0000       0.227283         6.1847 
  14   0.0000       0.266205         7.2438 
  15   0.0000       0.293001         7.9730 
  16   0.0000       0.310321         8.4443 
  17   0.0000       0.323427         8.8009 
  18   0.0000       0.343897         9.3579 
  19   0.0000       0.572669        15.5831 
  20   0.0000       0.588775        16.0214 
  21   0.0000       0.732204        19.9243 
  22   0.0000       0.744218        20.2512 
  23   0.0000       0.800910        21.7939 
  24   0.0000       0.817198        22.2371 
  25   0.0000       0.883404        24.0387 
  26   0.0000       0.898628        24.4529 
  27   0.0000       0.943671        25.6786 
  28   0.0000       0.971175        26.4270 
  29   0.0000       1.064262        28.9600 
  30   0.0000       1.124487        30.5988 
  31   0.0000       1.139504        31.0075 
  32   0.0000       1.178946        32.0807 
  33   0.0000       1.182942        32.1895 
  34   0.0000       1.436318        39.0842 
  35   0.0000       1.482173        40.3320 
  36   0.0000       1.499184        40.7949 
  37   0.0000       1.695987        46.1502 
  38   0.0000       1.729768        47.0694 
  39   0.0000       1.764957        48.0269 
  40   0.0000       2.760882        75.1274 
  41   0.0000       2.784780        75.7777 
  42   0.0000       2.869794        78.0911 
  43   0.0000       2.910263        79.1923 
  44   0.0000       2.976155        80.9853 
  45   0.0000       3.005112        81.7732 
  46   0.0000       3.031154        82.4819 
  47   0.0000       3.196158        86.9719 
  48   0.0000       3.205432        87.2242 
  49   0.0000       3.307968        90.0144 
  50   0.0000       3.321000        90.3690 
  51   0.0000       3.658173        99.5440 
  52   0.0000       3.774024       102.6964 
  53   0.0000       3.806659       103.5845 
  54   0.0000       3.839911       104.4893 
  55   0.0000       3.954038       107.5949 
  56   0.0000       4.003256       108.9341 
  57   0.0000       4.076800       110.9354 
  58   0.0000       4.149209       112.9057 
  59   0.0000       4.162390       113.2644 
  60   0.0000       4.529870       123.2640 
  61   0.0000       5.040201       137.1508 
  62   0.0000       5.287573       143.8822 
  63   0.0000       5.402229       147.0021 
  64   0.0000       5.507580       149.8689 
  65   0.0000       6.014956       163.6753 
  66   0.0000       6.109710       166.2537 
  67   0.0000       7.687814       209.1961 
  68   0.0000      29.050114       790.4938 
  69   0.0000      37.058853      1008.4227 
  70   0.0000      37.177796      1011.6593 
  71   0.0000      37.205283      1012.4072 
  72   0.0000     133.478952      3632.1469 

                    ********************************
                    * MULLIKEN POPULATION ANALYSIS *
                    ********************************

--------------------------------------------
MULLIKEN ATOMIC CHARGES AND SPIN POPULATIONS
--------------------------------------------
   0 C :   -0.429016    1.108255
   1 H :    0.130081   -0.038388
   2 H :    0.151393   -0.033743
   3 H :    0.147542   -0.036124
Sum of atomic charges         :   -0.0000000
Sum of atomic spin populations:    1.0000000

-----------------------------------------------------
MULLIKEN REDUCED ORBITAL CHARGES AND SPIN POPULATIONS
-----------------------------------------------------
CHARGE
  0 C s       :     3.345815  s :     3.345815
      pz      :     0.968538  p :     3.055695
      px      :     1.042989
      py      :     1.044169
      dz2     :     0.005626  d :     0.024637
      dxz     :     0.000146
      dyz     :     0.000237
      dx2y2   :     0.011582
      dxy     :     0.007047
      f0      :     0.000034  f :     0.002869
      f+1     :     0.000754
      f-1     :     0.000593
      f+2     :     0.000024
      f-2     :     0.000010
      f+3     :     0.000436
      f-3     :     0.001018
  1 H s       :     0.845514  s :     0.845514
      pz      :     0.009382  p :     0.024405
      px      :     0.005834
      py      :     0.009190
  2 H s       :     0.820549  s :     0.820549
      pz      :     0.011018  p :     0.028058
      px      :     0.009229
      py      :     0.007812
  3 H s       :     0.825552  s :     0.825552
      pz      :     0.010427  p :     0.026906
      px      :     0.009743
      py      :     0.006736

SPIN
  0 C s       :     0.068721  s :     0.068721
      pz      :     0.963218  p :     1.043814
      px      :     0.038899
      py      :     0.041697
      dz2     :    -0.004647  d :    -0.002965
      dxz     :    -0.000044
      dyz     :    -0.000057
      dx2y2   :     0.001202
      dxy     :     0.000581
      f0      :    -0.000015  f :    -0.001315
      f+1     :    -0.000659
      f-1     :    -0.000573
      f+2     :    -0.000012
      f-2     :    -0.000000
      f+3     :    -0.000014
      f-3     :    -0.000041
  1 H s       :    -0.047107  s :    -0.047107
      pz      :     0.009286  p :     0.008720
      px      :    -0.000436
      py      :    -0.000131
  2 H s       :    -0.044480  s :    -0.044480
      pz      :     0.010987  p :     0.010738
      px      :    -0.000045
      py      :    -0.000204
  3 H s       :    -0.046115  s :    -0.046115
      pz      :     0.010332  p :     0.009991
      px      :    -0.000037
      py      :    -0.000304


                     *******************************
                     * LOEWDIN POPULATION ANALYSIS *
                     *******************************

-------------------------------------------
LOEWDIN ATOMIC CHARGES AND SPIN POPULATIONS
-------------------------------------------
   0 C :   -0.173055    0.919089
   1 H :    0.067479    0.022926
   2 H :    0.047288    0.030944
   3 H :    0.058288    0.027041

----------------------------------------------------
LOEWDIN REDUCED ORBITAL CHARGES AND SPIN POPULATIONS
----------------------------------------------------
CHARGE
  0 C s       :     2.902333  s :     2.902333
      pz      :     0.880954  p :     3.173242
      px      :     1.146544
      py      :     1.145743
      dz2     :     0.006870  d :     0.090057
      dxz     :     0.000346
      dyz     :     0.000570
      dx2y2   :     0.049682
      dxy     :     0.032588
      f0      :     0.000230  f :     0.007424
      f+1     :     0.002154
      f-1     :     0.001696
      f+2     :     0.000127
      f-2     :     0.000015
      f+3     :     0.001028
      f-3     :     0.002174
  1 H s       :     0.801601  s :     0.801601
      pz      :     0.037025  p :     0.130920
      px      :     0.027650
      py      :     0.066244
  2 H s       :     0.805672  s :     0.805672
      pz      :     0.042717  p :     0.147040
      px      :     0.057608
      py      :     0.046715
  3 H s       :     0.801634  s :     0.801634
      pz      :     0.040159  p :     0.140078
      px      :     0.067315
      py      :     0.032603

SPIN
  0 C s       :     0.021285  s :     0.021285
      pz      :     0.875179  p :     0.906758
      px      :     0.013988
      py      :     0.017591
      dz2     :    -0.003922  d :    -0.007621
      dxz     :    -0.000054
      dyz     :    -0.000081
      dx2y2   :    -0.002220
      dxy     :    -0.001345
      f0      :     0.000139  f :    -0.001332
      f+1     :    -0.000611
      f-1     :    -0.000535
      f+2     :    -0.000018
      f-2     :    -0.000000
      f+3     :    -0.000093
      f-3     :    -0.000213
  1 H s       :    -0.018536  s :    -0.018536
      pz      :     0.036578  p :     0.041462
      px      :     0.000517
      py      :     0.004367
  2 H s       :    -0.017407  s :    -0.017407
      pz      :     0.042576  p :     0.048351
      px      :     0.003719
      py      :     0.002056
  3 H s       :    -0.018263  s :    -0.018263
      pz      :     0.039792  p :     0.045304
      px      :     0.004746
      py      :     0.000765


                      *****************************
                      * MAYER POPULATION ANALYSIS *
                      *****************************

  NA   - Mulliken gross atomic population
  ZA   - Total nuclear charge
  QA   - Mulliken gross atomic charge
  VA   - Mayer's total valence
  BVA  - Mayer's bonded valence
  FA   - Mayer's free valence

  ATOM       NA         ZA         QA         VA         BVA        FA
  0 C      6.4290     6.0000    -0.4290     3.8697     2.9225     0.9471
  1 H      0.8699     1.0000     0.1301     0.9792     0.9770     0.0022
  2 H      0.8486     1.0000     0.1514     0.9840     0.9820     0.0020
  3 H      0.8525     1.0000     0.1475     0.9824     0.9802     0.0021

  Mayer bond orders larger than 0.100000
B(  0-C ,  1-H ) :   0.9763 B(  0-C ,  2-H ) :   0.9729 B(  0-C ,  3-H ) :   0.9733 


-------
TIMINGS
-------

Total SCF time: 0 days 0 hours 0 min 8 sec 

Total time                  ....       8.395 sec
Sum of individual times     ....       7.338 sec  ( 87.4%)

Fock matrix formation       ....       5.897 sec  ( 70.2%)
  Split-RI-J                ....       0.533 sec  (  9.0% of F)
  Chain of spheres X        ....       1.117 sec  ( 18.9% of F)
  XC integration            ....       2.508 sec  ( 42.5% of F)
    Basis function eval.    ....       0.106 sec  (  4.2% of XC)
    Density eval.           ....       0.133 sec  (  5.3% of XC)
    XC-Functional eval.     ....       0.118 sec  (  4.7% of XC)
    XC-Potential eval.      ....       0.150 sec  (  6.0% of XC)
Diagonalization             ....       0.050 sec  (  0.6%)
Density matrix formation    ....       0.003 sec  (  0.0%)
Population analysis         ....       0.080 sec  (  1.0%)
Initial guess               ....       0.054 sec  (  0.6%)
Orbital Transformation      ....       0.000 sec  (  0.0%)
Orbital Orthonormalization  ....       0.000 sec  (  0.0%)
DIIS solution               ....       0.333 sec  (  4.0%)
Grid generation             ....       0.921 sec  ( 11.0%)

Maximum memory used throughout the entire SCF-calculation: 59.0 MB

-------------------------   --------------------
FINAL SINGLE POINT ENERGY       -39.824242045958
-------------------------   --------------------

   --->>> g-tensor requested, so NeedSOC=true

                            ***************************************
                            *     ORCA property calculations      *
                            ***************************************

                                    ---------------------
                                    Active property flags
                                    ---------------------
   (+) Dipole Moment
   (+) g-tensor
   (+) Nuclear properties (Hyperfine,Quadrupole)
   (+) Spin-Orbit Integrals are needed


------------------------------------------------------------------------------
                       ORCA ELECTRIC PROPERTIES CALCULATION
------------------------------------------------------------------------------

Dipole Moment Calculation                       ... on
Quadrupole Moment Calculation                   ... off
Polarizability Calculation                      ... off
GBWName                                         ... /home/rwth0701/scratch/cs681498/orcajob__30556356-mr7g/10042.gbw
Electron density                                ... /home/rwth0701/scratch/cs681498/orcajob__30556356-mr7g/10042.scfp
The origin for moment calculation is the CENTER OF MASS  = (-71.165179, -108.490020 -37.894134)

-------------
DIPOLE MOMENT
-------------
                                X             Y             Z
Electronic contribution:     -0.01025      -0.16629       0.06310
Nuclear contribution   :      0.00909       0.17423      -0.09488
                        -----------------------------------------
Total Dipole Moment    :     -0.00116       0.00794      -0.03178
                        -----------------------------------------
Magnitude (a.u.)       :      0.03278
Magnitude (Debye)      :      0.08332



--------------------
Rotational spectrum 
--------------------
 
Rotational constants in cm-1:     9.908173     8.423024     4.561100 
Rotational constants in MHz : 297039.540904 252515.894534 136738.327277 

 Dipole components along the rotational axes: 
x,y,z [a.u.] :     0.002956    -0.009338    -0.031282 
x,y,z [Debye]:     0.007515    -0.023736    -0.079513 

 


           ************************************************************
           *        Program running with 4 parallel MPI-processes     *
           *              working on a common directory               *
           ************************************************************
------------------------------------------------------------------------------
                         ORCA SPIN-ORBIT COUPLING CALCULATION
------------------------------------------------------------------------------

GBW file                                    ... /home/rwth0701/scratch/cs681498/orcajob__30556356-mr7g/10042.gbw
Input density                               ... /home/rwth0701/scratch/cs681498/orcajob__30556356-mr7g/10042.scfp
Output integrals                            ... /home/rwth0701/scratch/cs681498/orcajob__30556356-mr7g/10042
Operator type                               ... Mean-field/Effective potential
   One-Electron Terms                       ... 1
   Coulomb Contribution                     ... 3
   Exchange Contribution                    ... 3
   Correlation Contribution                 ... 0
   Maximum number of centers                ... 4
SHARK 2-electron RIJ-SOMF                   ... done (  0.1 sec)
SHARK 1-electron  MaxCenter=4               ... done (  0.0 sec)
SHARK 2-electron DoJ,X=0,1 MaxCenter=1      ... done (  0.1 sec)

Maximum memory used throughout the entire SOC-calculation: 11.3 MB
Total time for SOC:  2.935


           ************************************************************
           *        Program running with 4 parallel MPI-processes     *
           *              working on a common directory               *
           ************************************************************
------------------------------------------------------------------------------
                                ORCA EPR/NMR CALCULATION
------------------------------------------------------------------------------

GBWName                      ... /home/rwth0701/scratch/cs681498/orcajob__30556356-mr7g/10042.gbw
Electron density             ... /home/rwth0701/scratch/cs681498/orcajob__30556356-mr7g/10042.scfp
Spin density                 ... /home/rwth0701/scratch/cs681498/orcajob__30556356-mr7g/10042.scfr
Spin-orbit integrals         ... /home/rwth0701/scratch/cs681498/orcajob__30556356-mr7g/10042
Treatment of gauge           ... GIAO (approximations 1/2el = 0,0)
Details of the CP(SCF) procedure:
       Solver   = POPLE   
       MaxIter  =    64   
       Tolerance=    1.000e-03
       COSX Grid=     1   
       Op-0     =   0-  4 =>   5- 72
       Op-1     =   0-  3 =>   4- 72
Multiplicity                 ... 2
g-tensor                     ... 1
NMR chemical shifts          ... 0
NMR spin-spin couplings      ... 0
NMR spectrum                 ... 0
Number of nuclei for epr/nmr ... 4
   Nucleus:   1H 
       Hyperfine : Isotope=    1 I=   0.500 P= 533.551
       Quadrupole: Isotope=    2 I=   1.000 Q=   0.003
       Spin-Orbit: Zeff=   1.000
       Nuclear Spin-Spin: Gn=   0.000
       EPRNMR Input: 
       rho(0)=N f(grad)=N a(iso)=Y a(dip)=Y a(orb)=Y sigma(nmr)=N spin-spin(nmr)=all-N,DSO-N,PSO-N,FC-N,SD-N
   Nucleus:   2H 
       Hyperfine : Isotope=    1 I=   0.500 P= 533.551
       Quadrupole: Isotope=    2 I=   1.000 Q=   0.003
       Spin-Orbit: Zeff=   1.000
       Nuclear Spin-Spin: Gn=   0.000
       EPRNMR Input: 
       rho(0)=N f(grad)=N a(iso)=Y a(dip)=Y a(orb)=Y sigma(nmr)=N spin-spin(nmr)=all-N,DSO-N,PSO-N,FC-N,SD-N
   Nucleus:   3H 
       Hyperfine : Isotope=    1 I=   0.500 P= 533.551
       Quadrupole: Isotope=    2 I=   1.000 Q=   0.003
       Spin-Orbit: Zeff=   1.000
       Nuclear Spin-Spin: Gn=   0.000
       EPRNMR Input: 
       rho(0)=N f(grad)=N a(iso)=Y a(dip)=Y a(orb)=Y sigma(nmr)=N spin-spin(nmr)=all-N,DSO-N,PSO-N,FC-N,SD-N
   Nucleus:   0C 
       Hyperfine : Isotope=   13 I=   0.500 P= 134.190
       Quadrupole: Isotope=   13 I=   0.500 Q=   0.000
       Spin-Orbit: Zeff=   3.600
       Nuclear Spin-Spin: Gn=   0.000
       EPRNMR Input: 
       rho(0)=N f(grad)=N a(iso)=Y a(dip)=Y a(orb)=Y sigma(nmr)=N spin-spin(nmr)=all-N,DSO-N,PSO-N,FC-N,SD-N
Forming RHS of the CP-SCF equations         ... 
Calculating right hand sides for GIAO treatment        ... 
  Entering RightHandSide GIAO. ScalHFX=    0.2000 NeedHFX=1
     -> 1-electron GIAO integrals will be done analytically
     -> RIJCOSX used in SCF. Same chosen for GIAO calculation.
     Making grid for GIAO integrations   ...

GRID GIAO
---------

General Integration Accuracy     IntAcc      ... 4.388
Radial Grid Type                 RadialGrid  ... OptM3 with GC (2021)
Angular Grid (max. ang.)         AngularGrid ... 4 (Lebedev-302)
Angular grid pruning method      GridPruning ... 4 (adaptive)
Weight generation scheme         WeightScheme... Becke
Basis function cutoff            BFCut       ... 1.0000e-10
Integration weight cutoff        WCut        ... 1.0000e-14
Angular grids for H and He will be reduced by one unit
Partially contracted basis set               ... off
Rotationally invariant grid construction     ... off

Total number of grid points                  ...    17046
Total number of batches                      ...      268
Average number of points per batch           ...       63
Average number of grid points per atom       ...     4262

  One-electron GIAO integrals (SHARK)     ... done
  Calculating G(B)[P]                     ... (RI-J: SHARK-ok) (COSX-ok) (add-J+K:ok) => dG/dB done
  DFT XC-terms                            ... done
  Extracting occupied and virtual blocks  ... 
  Operator  0  NO=   5 NV=  68 
  Operator  1  NO=   4 NV=  69 
  Transforming and RHS contribution       ... done
  Adding eps_i * S(B)_ai terms            ... done
  Projecting overlap derivatives          ... done
  Building G[dS/dB_ij] (COSX)             ... done
  Transforming to MO basis                ... done
  Summing G[dS/dB_ij] into RHS contribs.  ... done

  GIAO profiling information: 
    Total GIAO time               ...       0.8 sec
       GIAO 1-electron integrals  ...       0.0 sec (  0.4%)
       GIAO G(dS/dB) terms        ...       0.1 sec ( 12.9%)
       GIAO RI-J                  ...       0.1 sec ( 13.0%)
       GIAO COSX                  ...       0.1 sec ( 18.6%)
       GIAO XC-terms              ...       0.3 sec ( 36.9%)

  GIAO right hand side done


------------------------------------------------------------------------------
                           ORCA CP-SCF CALCULATION
------------------------------------------------------------------------------

Input orbitals are from        ... /home/rwth0701/scratch/cs681498/orcajob__30556356-mr7g/10042.gbw
Input Perturbation             ... /home/rwth0701/scratch/cs681498/orcajob__30556356-mr7g/10042.pin.tmp
Wavefunction output            ... /home/rwth0701/scratch/cs681498/orcajob__30556356-mr7g/10042.pout.tmp
Perturbation mode              ... Imaginary perturbation
Solver                         ... POPLE
Max. number of iterations      ... 64
Convergence tolerance          ... 1.000e-03
Integral handling              ... Direct
DFT GridXC                     ... 1
COSX GridX                     ... 1
COSX IntAccX                   ... 3.067
COSX Algorithm                 ... Auto
Number of perturbations        ... 3
Number of operators            ... 2
Orbital ranges used for CP-SCF:
 Operator 0:  Orbitals   0...  4  to   5... 72
 Operator 1:  Orbitals   0...  3  to   4... 72
Variables per perturbation     ... 616
DFT calculation                         ... on
XC functional terms                     ... off
Hybrid DFT                              ... on
   Exchange mixing (SCF)                ...  0.200
   Exchange mixing (CP-SCF)             ...  0.200
   GGA exch. scaling(SCF)               ...  0.720
   GGA exch. scaling (CP-SCF)           ...  0.720
   GGA corr. scaling (SCF)              ...  0.810
   GGA corr. scaling (CP-SCF)           ...  0.810

CP-SCF GRID
-----------

General Integration Accuracy     IntAcc      ... 3.467
Radial Grid Type                 RadialGrid  ... OptM3 with GC (2021)
Angular Grid (max. ang.)         AngularGrid ... 1 (Lebedev-50)
Angular grid pruning method      GridPruning ... 4 (adaptive)
Weight generation scheme         WeightScheme... Becke
Basis function cutoff            BFCut       ... 1.0000e-10
Integration weight cutoff        WCut        ... 1.0000e-14
Angular grids for H and He will be reduced by one unit
Partially contracted basis set               ... off
Rotationally invariant grid construction     ... off

Total number of grid points                  ...     2344
Total number of batches                      ...       39
Average number of points per batch           ...       60
Average number of grid points per atom       ...      586

CP-SCF GRIDX
------------

General Integration Accuracy     IntAcc      ... 3.067
Radial Grid Type                 RadialGrid  ... OptM3 with GC (2021)
Angular Grid (max. ang.)         AngularGrid ... 1 (Lebedev-50)
Angular grid pruning method      GridPruning ... 4 (adaptive)
Weight generation scheme         WeightScheme... Becke
Basis function cutoff            BFCut       ... 1.0000e-10
Integration weight cutoff        WCut        ... 1.0000e-14
Angular grids for H and He will be reduced by one unit
Partially contracted basis set               ... on
Rotationally invariant grid construction     ... off

Total number of grid points                  ...     1073
Total number of batches                      ...       20
Average number of points per batch           ...       53
Average number of grid points per atom       ...      268

Memory available               ... 1014.6 MB
Memory needed per perturbation ...   0.4 MB
Perturbations treated per batch... 3
Number of batches              ... 1
     CP-SCF ITERATION   0:   6.1524e+00 (   0.1 sec   0/  3 done)
     CP-SCF ITERATION   1:   4.9742e-02 (   0.1 sec   0/  3 done)
     CP-SCF ITERATION   2:   3.6830e-03 (   0.1 sec   0/  3 done)
     CP-SCF ITERATION   3:   2.9629e-04 (   0.1 sec   3/  3 done)
                    *** THE CP-SCF HAS CONVERGED ***

Forming final perturbed densities           ... done
Transforming perturbed density to AO basis  ... done

Magnetic field perturbation calculated in  1.331 sec
GIAO: Diamagnetic terms      (analytic)     (SHARK) ... done
GIAO: 1el-Paramagnetic terms (analytic)     (SHARK) ... done

-------------------
ELECTRONIC G-MATRIX
-------------------

 The g-matrix: 
              2.0029120    0.0000020   -0.0000294
              0.0000039    2.0028918   -0.0000350
             -0.0000448   -0.0000707    2.0022347

 gel          2.0023193    2.0023193    2.0023193
 gRMC        -0.0001278   -0.0001278   -0.0001278
 gDSO(tot)    0.0000345    0.0000705    0.0000710
 gPSO(tot)    0.0000025    0.0006323    0.0006532
             ----------   ----------   ----------
 g(tot)       2.0022285    2.0028942    2.0029157 iso=  2.0026795
 Delta-g     -0.0000908    0.0005750    0.0005964 iso=  0.0003602
 Orientation: 
  X           0.0537199   -0.2845774   -0.9571467
  Y           0.0790458    0.9567348   -0.2800184
  Z           0.9954225   -0.0606158    0.0738903

Notes:  (1) The g-matrix conforms to the "BgS" spin Hamiltonian convention. 
        (2) The principal values are square roots of the eigenvalues of g*gT.
        (3) Orientations are eigenvectors of g*gT written as column vectors.
        (4) Individual contributions are projections of the full matrices onto the eigenvectors of g*gT.
        (5) Tensor is right-handed.


-----------------------------------------
ELECTRIC AND MAGNETIC HYPERFINE STRUCTURE
-----------------------------------------

 -----------------------------------------------------------
 Nucleus   1H : A:ISTP=    1 I=  0.5 P=533.5514 MHz/au**3
                Q:ISTP=    2 I=  1.0 Q=  0.0029 barn     
 -----------------------------------------------------------
 Solving for nuclear perturbation:
Forming RHS of the CP-SCF equations         ... 
Calc. nucleus orbit integrals (SHARK)       ... done

------------------------------------------------------------------------------
                           ORCA CP-SCF CALCULATION
------------------------------------------------------------------------------

Input orbitals are from        ... /home/rwth0701/scratch/cs681498/orcajob__30556356-mr7g/10042.gbw
Input Perturbation             ... /home/rwth0701/scratch/cs681498/orcajob__30556356-mr7g/10042.pin.tmp
Wavefunction output            ... /home/rwth0701/scratch/cs681498/orcajob__30556356-mr7g/10042.pout.tmp
Perturbation mode              ... Imaginary perturbation
Solver                         ... POPLE
Max. number of iterations      ... 64
Convergence tolerance          ... 1.000e-03
Integral handling              ... Direct
DFT GridXC                     ... 1
COSX GridX                     ... 1
COSX IntAccX                   ... 3.067
COSX Algorithm                 ... Auto
Number of perturbations        ... 3
Number of operators            ... 2
Orbital ranges used for CP-SCF:
 Operator 0:  Orbitals   0...  4  to   5... 72
 Operator 1:  Orbitals   0...  3  to   4... 72
Variables per perturbation     ... 616
DFT calculation                         ... on
XC functional terms                     ... off
Hybrid DFT                              ... on
   Exchange mixing (SCF)                ...  0.200
   Exchange mixing (CP-SCF)             ...  0.200
   GGA exch. scaling(SCF)               ...  0.720
   GGA exch. scaling (CP-SCF)           ...  0.720
   GGA corr. scaling (SCF)              ...  0.810
   GGA corr. scaling (CP-SCF)           ...  0.810

CP-SCF GRID
-----------

General Integration Accuracy     IntAcc      ... 3.467
Radial Grid Type                 RadialGrid  ... OptM3 with GC (2021)
Angular Grid (max. ang.)         AngularGrid ... 1 (Lebedev-50)
Angular grid pruning method      GridPruning ... 4 (adaptive)
Weight generation scheme         WeightScheme... Becke
Basis function cutoff            BFCut       ... 1.0000e-10
Integration weight cutoff        WCut        ... 1.0000e-14
Angular grids for H and He will be reduced by one unit
Partially contracted basis set               ... off
Rotationally invariant grid construction     ... off

Total number of grid points                  ...     2344
Total number of batches                      ...       39
Average number of points per batch           ...       60
Average number of grid points per atom       ...      586

CP-SCF GRIDX
------------

General Integration Accuracy     IntAcc      ... 3.067
Radial Grid Type                 RadialGrid  ... OptM3 with GC (2021)
Angular Grid (max. ang.)         AngularGrid ... 1 (Lebedev-50)
Angular grid pruning method      GridPruning ... 4 (adaptive)
Weight generation scheme         WeightScheme... Becke
Basis function cutoff            BFCut       ... 1.0000e-10
Integration weight cutoff        WCut        ... 1.0000e-14
Angular grids for H and He will be reduced by one unit
Partially contracted basis set               ... on
Rotationally invariant grid construction     ... off

Total number of grid points                  ...     1073
Total number of batches                      ...       20
Average number of points per batch           ...       53
Average number of grid points per atom       ...      268

Memory available               ... 968.0 MB
Memory needed per perturbation ...   0.4 MB
Perturbations treated per batch... 3
Number of batches              ... 1
     CP-SCF ITERATION   0:   5.5414e-02 (   0.1 sec   0/  3 done)
     CP-SCF ITERATION   1:   1.8760e-03 (   0.1 sec   1/  3 done)
     CP-SCF ITERATION   2:   1.5087e-04 (   0.1 sec   3/  3 done)
                    *** THE CP-SCF HAS CONVERGED ***

Forming final perturbed densities           ... done
Transforming perturbed density to AO basis  ... done

 Raw HFC matrix (all values in MHz): 
 -----------------------------------
               -98.3657             -11.5288               2.2649
               -11.5287             -29.2407              -3.0671
                 2.2649              -3.0671             -65.1825

 A(FC)         -64.2767             -64.2767             -64.2767
 A(SD)          37.1976              -1.1201             -36.0775
 A(ORB+DIA)      0.0124              -0.0007               0.0296    A(PC) =   0.0138
 A(ORB)          0.0080               0.0004               0.0283    A(PC) =   0.0123
 A(DIA)          0.0044              -0.0011               0.0012    A(PC) =   0.0015
             ----------           ----------           ----------
 A(Tot)        -27.0667             -65.3975            -100.3247    A(iso)=  -64.2629
 Orientation: 
  X          -0.1617390            0.0349381            0.9862149
  Y           0.9828395            0.0955268            0.1578013
  Z          -0.0886966            0.9948135           -0.0497890

Notes:  (1) The A matrix conforms to the "SAI" spin Hamiltonian convention.
        (2) Tensor is right-handed.

 -----------------------------------------------------------
 Nucleus   2H : A:ISTP=    1 I=  0.5 P=533.5514 MHz/au**3
                Q:ISTP=    2 I=  1.0 Q=  0.0029 barn     
 -----------------------------------------------------------
 Solving for nuclear perturbation:
Forming RHS of the CP-SCF equations         ... 
Calc. nucleus orbit integrals (SHARK)       ... done

------------------------------------------------------------------------------
                           ORCA CP-SCF CALCULATION
------------------------------------------------------------------------------

Input orbitals are from        ... /home/rwth0701/scratch/cs681498/orcajob__30556356-mr7g/10042.gbw
Input Perturbation             ... /home/rwth0701/scratch/cs681498/orcajob__30556356-mr7g/10042.pin.tmp
Wavefunction output            ... /home/rwth0701/scratch/cs681498/orcajob__30556356-mr7g/10042.pout.tmp
Perturbation mode              ... Imaginary perturbation
Solver                         ... POPLE
Max. number of iterations      ... 64
Convergence tolerance          ... 1.000e-03
Integral handling              ... Direct
DFT GridXC                     ... 1
COSX GridX                     ... 1
COSX IntAccX                   ... 3.067
COSX Algorithm                 ... Auto
Number of perturbations        ... 3
Number of operators            ... 2
Orbital ranges used for CP-SCF:
 Operator 0:  Orbitals   0...  4  to   5... 72
 Operator 1:  Orbitals   0...  3  to   4... 72
Variables per perturbation     ... 616
DFT calculation                         ... on
XC functional terms                     ... off
Hybrid DFT                              ... on
   Exchange mixing (SCF)                ...  0.200
   Exchange mixing (CP-SCF)             ...  0.200
   GGA exch. scaling(SCF)               ...  0.720
   GGA exch. scaling (CP-SCF)           ...  0.720
   GGA corr. scaling (SCF)              ...  0.810
   GGA corr. scaling (CP-SCF)           ...  0.810

CP-SCF GRID
-----------

General Integration Accuracy     IntAcc      ... 3.467
Radial Grid Type                 RadialGrid  ... OptM3 with GC (2021)
Angular Grid (max. ang.)         AngularGrid ... 1 (Lebedev-50)
Angular grid pruning method      GridPruning ... 4 (adaptive)
Weight generation scheme         WeightScheme... Becke
Basis function cutoff            BFCut       ... 1.0000e-10
Integration weight cutoff        WCut        ... 1.0000e-14
Angular grids for H and He will be reduced by one unit
Partially contracted basis set               ... off
Rotationally invariant grid construction     ... off

Total number of grid points                  ...     2344
Total number of batches                      ...       39
Average number of points per batch           ...       60
Average number of grid points per atom       ...      586

CP-SCF GRIDX
------------

General Integration Accuracy     IntAcc      ... 3.067
Radial Grid Type                 RadialGrid  ... OptM3 with GC (2021)
Angular Grid (max. ang.)         AngularGrid ... 1 (Lebedev-50)
Angular grid pruning method      GridPruning ... 4 (adaptive)
Weight generation scheme         WeightScheme... Becke
Basis function cutoff            BFCut       ... 1.0000e-10
Integration weight cutoff        WCut        ... 1.0000e-14
Angular grids for H and He will be reduced by one unit
Partially contracted basis set               ... on
Rotationally invariant grid construction     ... off

Total number of grid points                  ...     1073
Total number of batches                      ...       20
Average number of points per batch           ...       53
Average number of grid points per atom       ...      268

Memory available               ... 967.8 MB
Memory needed per perturbation ...   0.4 MB
Perturbations treated per batch... 3
Number of batches              ... 1
     CP-SCF ITERATION   0:   6.7284e-02 (   0.1 sec   0/  3 done)
     CP-SCF ITERATION   1:   2.8218e-03 (   0.1 sec   1/  3 done)
     CP-SCF ITERATION   2:   2.5936e-04 (   0.1 sec   3/  3 done)
                    *** THE CP-SCF HAS CONVERGED ***

Forming final perturbed densities           ... done
Transforming perturbed density to AO basis  ... done

 Raw HFC matrix (all values in MHz): 
 -----------------------------------
               -54.7516              37.2076              -1.2880
                37.2081             -79.8629               0.0164
                -1.2879               0.0165             -65.7248

 A(FC)         -66.7933             -66.7933             -66.7933
 A(SD)          38.7728               1.0549             -39.8277
 A(ORB+DIA)      0.0109              -0.0005               0.0303    A(PC) =   0.0135
 A(ORB)          0.0059               0.0006               0.0289    A(PC) =   0.0118
 A(DIA)          0.0050              -0.0011               0.0014    A(PC) =   0.0017
             ----------           ----------           ----------
 A(Tot)        -28.0096             -65.7390            -106.5907    A(iso)=  -66.7798
 Orientation: 
  X          -0.8121717            0.0114120           -0.5833069
  Y          -0.5827709            0.0312269            0.8120363
  Z           0.0274818            0.9994472           -0.0187110

Notes:  (1) The A matrix conforms to the "SAI" spin Hamiltonian convention.
        (2) Tensor is right-handed.

 -----------------------------------------------------------
 Nucleus   3H : A:ISTP=    1 I=  0.5 P=533.5514 MHz/au**3
                Q:ISTP=    2 I=  1.0 Q=  0.0029 barn     
 -----------------------------------------------------------
 Solving for nuclear perturbation:
Forming RHS of the CP-SCF equations         ... 
Calc. nucleus orbit integrals (SHARK)       ... done

------------------------------------------------------------------------------
                           ORCA CP-SCF CALCULATION
------------------------------------------------------------------------------

Input orbitals are from        ... /home/rwth0701/scratch/cs681498/orcajob__30556356-mr7g/10042.gbw
Input Perturbation             ... /home/rwth0701/scratch/cs681498/orcajob__30556356-mr7g/10042.pin.tmp
Wavefunction output            ... /home/rwth0701/scratch/cs681498/orcajob__30556356-mr7g/10042.pout.tmp
Perturbation mode              ... Imaginary perturbation
Solver                         ... POPLE
Max. number of iterations      ... 64
Convergence tolerance          ... 1.000e-03
Integral handling              ... Direct
DFT GridXC                     ... 1
COSX GridX                     ... 1
COSX IntAccX                   ... 3.067
COSX Algorithm                 ... Auto
Number of perturbations        ... 3
Number of operators            ... 2
Orbital ranges used for CP-SCF:
 Operator 0:  Orbitals   0...  4  to   5... 72
 Operator 1:  Orbitals   0...  3  to   4... 72
Variables per perturbation     ... 616
DFT calculation                         ... on
XC functional terms                     ... off
Hybrid DFT                              ... on
   Exchange mixing (SCF)                ...  0.200
   Exchange mixing (CP-SCF)             ...  0.200
   GGA exch. scaling(SCF)               ...  0.720
   GGA exch. scaling (CP-SCF)           ...  0.720
   GGA corr. scaling (SCF)              ...  0.810
   GGA corr. scaling (CP-SCF)           ...  0.810

CP-SCF GRID
-----------

General Integration Accuracy     IntAcc      ... 3.467
Radial Grid Type                 RadialGrid  ... OptM3 with GC (2021)
Angular Grid (max. ang.)         AngularGrid ... 1 (Lebedev-50)
Angular grid pruning method      GridPruning ... 4 (adaptive)
Weight generation scheme         WeightScheme... Becke
Basis function cutoff            BFCut       ... 1.0000e-10
Integration weight cutoff        WCut        ... 1.0000e-14
Angular grids for H and He will be reduced by one unit
Partially contracted basis set               ... off
Rotationally invariant grid construction     ... off

Total number of grid points                  ...     2344
Total number of batches                      ...       39
Average number of points per batch           ...       60
Average number of grid points per atom       ...      586

CP-SCF GRIDX
------------

General Integration Accuracy     IntAcc      ... 3.067
Radial Grid Type                 RadialGrid  ... OptM3 with GC (2021)
Angular Grid (max. ang.)         AngularGrid ... 1 (Lebedev-50)
Angular grid pruning method      GridPruning ... 4 (adaptive)
Weight generation scheme         WeightScheme... Becke
Basis function cutoff            BFCut       ... 1.0000e-10
Integration weight cutoff        WCut        ... 1.0000e-14
Angular grids for H and He will be reduced by one unit
Partially contracted basis set               ... on
Rotationally invariant grid construction     ... off

Total number of grid points                  ...     1073
Total number of batches                      ...       20
Average number of points per batch           ...       53
Average number of grid points per atom       ...      268

Memory available               ... 967.7 MB
Memory needed per perturbation ...   0.4 MB
Perturbations treated per batch... 3
Number of batches              ... 1
     CP-SCF ITERATION   0:   6.6449e-02 (   0.1 sec   0/  3 done)
     CP-SCF ITERATION   1:   2.5665e-03 (   0.1 sec   1/  3 done)
     CP-SCF ITERATION   2:   1.9980e-04 (   0.1 sec   3/  3 done)
                    *** THE CP-SCF HAS CONVERGED ***

Forming final perturbed densities           ... done
Transforming perturbed density to AO basis  ... done

 Raw HFC matrix (all values in MHz): 
 -----------------------------------
               -32.9775             -16.6746              -1.9817
               -16.6754            -101.0934               2.8482
                -1.9819               2.8482             -66.9919

 A(FC)         -67.0345             -67.0345             -67.0345
 A(SD)          38.0826               0.0113             -38.0939
 A(ORB+DIA)      0.0117              -0.0006               0.0295    A(PC) =   0.0136
 A(ORB)          0.0071               0.0005               0.0282    A(PC) =   0.0119
 A(DIA)          0.0047              -0.0011               0.0013    A(PC) =   0.0016
             ----------           ----------           ----------
 A(Tot)        -28.9402             -67.0238            -105.0989    A(iso)=  -67.0209
 Orientation: 
  X           0.9715029            0.0796472           -0.2232454
  Y          -0.2271833            0.0442698           -0.9728453
  Z          -0.0676014            0.9958396            0.0611027

Notes:  (1) The A matrix conforms to the "SAI" spin Hamiltonian convention.
        (2) Tensor is right-handed.

 -----------------------------------------------------------
 Nucleus   0C : A:ISTP=   13 I=  0.5 P=134.1903 MHz/au**3
                Q:ISTP=   13 I=  0.5 Q=  0.0000 barn     
 -----------------------------------------------------------
 Solving for nuclear perturbation:
Forming RHS of the CP-SCF equations         ... 
Calc. nucleus orbit integrals (SHARK)       ... done

------------------------------------------------------------------------------
                           ORCA CP-SCF CALCULATION
------------------------------------------------------------------------------

Input orbitals are from        ... /home/rwth0701/scratch/cs681498/orcajob__30556356-mr7g/10042.gbw
Input Perturbation             ... /home/rwth0701/scratch/cs681498/orcajob__30556356-mr7g/10042.pin.tmp
Wavefunction output            ... /home/rwth0701/scratch/cs681498/orcajob__30556356-mr7g/10042.pout.tmp
Perturbation mode              ... Imaginary perturbation
Solver                         ... POPLE
Max. number of iterations      ... 64
Convergence tolerance          ... 1.000e-03
Integral handling              ... Direct
DFT GridXC                     ... 1
COSX GridX                     ... 1
COSX IntAccX                   ... 3.067
COSX Algorithm                 ... Auto
Number of perturbations        ... 3
Number of operators            ... 2
Orbital ranges used for CP-SCF:
 Operator 0:  Orbitals   0...  4  to   5... 72
 Operator 1:  Orbitals   0...  3  to   4... 72
Variables per perturbation     ... 616
DFT calculation                         ... on
XC functional terms                     ... off
Hybrid DFT                              ... on
   Exchange mixing (SCF)                ...  0.200
   Exchange mixing (CP-SCF)             ...  0.200
   GGA exch. scaling(SCF)               ...  0.720
   GGA exch. scaling (CP-SCF)           ...  0.720
   GGA corr. scaling (SCF)              ...  0.810
   GGA corr. scaling (CP-SCF)           ...  0.810

CP-SCF GRID
-----------

General Integration Accuracy     IntAcc      ... 3.467
Radial Grid Type                 RadialGrid  ... OptM3 with GC (2021)
Angular Grid (max. ang.)         AngularGrid ... 1 (Lebedev-50)
Angular grid pruning method      GridPruning ... 4 (adaptive)
Weight generation scheme         WeightScheme... Becke
Basis function cutoff            BFCut       ... 1.0000e-10
Integration weight cutoff        WCut        ... 1.0000e-14
Angular grids for H and He will be reduced by one unit
Partially contracted basis set               ... off
Rotationally invariant grid construction     ... off

Total number of grid points                  ...     2344
Total number of batches                      ...       39
Average number of points per batch           ...       60
Average number of grid points per atom       ...      586

CP-SCF GRIDX
------------

General Integration Accuracy     IntAcc      ... 3.067
Radial Grid Type                 RadialGrid  ... OptM3 with GC (2021)
Angular Grid (max. ang.)         AngularGrid ... 1 (Lebedev-50)
Angular grid pruning method      GridPruning ... 4 (adaptive)
Weight generation scheme         WeightScheme... Becke
Basis function cutoff            BFCut       ... 1.0000e-10
Integration weight cutoff        WCut        ... 1.0000e-14
Angular grids for H and He will be reduced by one unit
Partially contracted basis set               ... on
Rotationally invariant grid construction     ... off

Total number of grid points                  ...     1073
Total number of batches                      ...       20
Average number of points per batch           ...       53
Average number of grid points per atom       ...      268

Memory available               ... 967.6 MB
Memory needed per perturbation ...   0.4 MB
Perturbations treated per batch... 3
Number of batches              ... 1
     CP-SCF ITERATION   0:   1.1896e+00 (   0.1 sec   0/  3 done)
     CP-SCF ITERATION   1:   4.5004e-02 (   0.1 sec   0/  3 done)
     CP-SCF ITERATION   2:   3.3902e-03 (   0.1 sec   0/  3 done)
     CP-SCF ITERATION   3:   1.6539e-04 (   0.1 sec   3/  3 done)
                    *** THE CP-SCF HAS CONVERGED ***

Forming final perturbed densities           ... done
Transforming perturbed density to AO basis  ... done

 Raw HFC matrix (all values in MHz): 
 -----------------------------------
                11.4871               0.1724              10.2239
                 0.1724              12.7513              13.1838
                10.2239              13.1838             252.1996

 A(FC)          92.2665              92.2665              92.2665
 A(SD)         -81.1721             -79.9296             161.1018
 A(ORB+DIA)     -0.1748              -0.1735              -0.0133    A(PC) =  -0.1205
 A(ORB)         -0.1752              -0.1739              -0.0132    A(PC) =  -0.1208
 A(DIA)          0.0004               0.0004              -0.0001    A(PC) =   0.0002
             ----------           ----------           ----------
 A(Tot)         10.9196              12.1634             253.3550    A(iso)=   92.1460
 Orientation: 
  X           0.9429862            0.3301446           -0.0422088
  Y           0.3277628           -0.9431756           -0.0546939
  Z          -0.0578672            0.0377411           -0.9976106

Notes:  (1) The A matrix conforms to the "SAI" spin Hamiltonian convention.
        (2) Tensor is right-handed.


--------------------------------------------------------------------------------
----------------------------------------------------------------------------
                           ORCA EULER ANGLE PROGRAM
----------------------------------------------------------------------------

Only g-tensor available        -->  using g-tensor as reference tensor

Reference tensor               ...  g

g-tensor ordering              ...  |g_min> --> |gx>
                                    |g_mid> --> |gy>
                                    |g_max> --> |gz>

A- and EFG-tensor ordering     ...  the axes |Ax>, |Qx>, |Ay>, etc. are assigned
                                    such that the Euler rotation is minimal. You
                                    can find the respective eigenvalues as Ax,
                                    EFGx, Ay, etc. in the tables below.
                                    The relation of |Ax>, |Ay>,  etc. to Amin, Amid, etc.
                                    (as printed in the ORCA EPR/NMR CALCULATION Output)
                                    is obtained in the detailed printout.

Euler rotation around          ...  z - y - z
   First rotation              -->  by alpha around z
   Second rotation             -->  by beta around y'
   Third rotation              -->  by gamma around z''
   Positive / Negative angle   -->  clockwise / counterclockwise rotation

Plot EFG-tensors                    (-)
Plot HFC-tensors                    (-)
Detailed Printout                   (-)

-------------------------------------------------------------------------
          Euler rotation of hyperfine tensor to g-tensor
-------------------------------------------------------------------------

-------------------------------------------------------------------
 Atom  |   Alpha    Beta    Gamma   |   Ax       Ay       Az 
       |          [degrees]         |           [MHz]         
-------------------------------------------------------------------
  1H      -84.0      7.3     82.8     -65.40   -27.07  -100.32
  2H       80.7     19.5    -79.2     -65.74  -106.59   -28.01
  3H      -91.8     29.4     93.9     -67.02  -105.10   -28.94
  0C       69.9      3.0    -68.7     253.36    12.16    10.92
-------------------------------------------------------------------


Maximum memory used throughout the entire EPRNMR-calculation: 67.6 MB

Timings for individual modules:

Sum of individual times         ...       28.705 sec (=   0.478 min)
GTO integral calculation        ...        6.528 sec (=   0.109 min)  22.7 %
Spin-Orbit-Coupling Matrices    ...        2.928 sec (=   0.049 min)  10.2 %
SCF iterations                  ...       12.552 sec (=   0.209 min)  43.7 %
EPR/NMR calculation             ...        6.697 sec (=   0.112 min)  23.3 %
                             ****ORCA TERMINATED NORMALLY****
TOTAL RUN TIME: 0 days 0 hours 0 minutes 31 seconds 463 msec
