Job execution start: Mon Oct 24 18:40:47 CEST 2022
Shared library path: /home/cs681498/orca:/opt/MPI/openmpi-4.1.1/linux/gcc_4.8.5/lib:/opt/MPI/openmpi-4.1.1/linux/gcc_4.8.5/lib/lib32
Slurm Job ID is: 30556164
Slurm Job name is: 3327
ncm0502

                                 *****************
                                 * O   R   C   A *
                                 *****************

                                            #,                                       
                                            ###                                      
                                            ####                                     
                                            #####                                    
                                            ######                                   
                                           ########,                                 
                                     ,,################,,,,,                         
                               ,,#################################,,                 
                          ,,##########################################,,             
                       ,#########################################, ''#####,          
                    ,#############################################,,   '####,        
                  ,##################################################,,,,####,       
                ,###########''''           ''''###############################       
              ,#####''   ,,,,##########,,,,          '''####'''          '####       
            ,##' ,,,,###########################,,,                        '##       
           ' ,,###''''                  '''############,,,                           
         ,,##''                                '''############,,,,        ,,,,,,###''
      ,#''                                            '''#######################'''  
     '                                                          ''''####''''         
             ,#######,   #######,   ,#######,      ##                                
            ,#'     '#,  ##    ##  ,#'     '#,    #''#        ######   ,####,        
            ##       ##  ##   ,#'  ##            #'  '#       #        #'  '#        
            ##       ##  #######   ##           ,######,      #####,   #    #        
            '#,     ,#'  ##    ##  '#,     ,#' ,#      #,         ##   #,  ,#        
             '#######'   ##     ##  '#######'  #'      '#     #####' # '####'        



                  #######################################################
                  #                        -***-                        #
                  #          Department of theory and spectroscopy      #
                  #    Directorship and core code : Frank Neese         #
                  #        Max Planck Institute fuer Kohlenforschung    #
                  #                Kaiser Wilhelm Platz 1               #
                  #                 D-45470 Muelheim/Ruhr               #
                  #                      Germany                        #
                  #                                                     #
                  #                  All rights reserved                #
                  #                        -***-                        #
                  #######################################################


                         Program Version 5.0.3 -  RELEASE  -


 With contributions from (in alphabetic order):
   Daniel Aravena         : Magnetic Suceptibility
   Michael Atanasov       : Ab Initio Ligand Field Theory (pilot matlab implementation)
   Alexander A. Auer      : GIAO ZORA, VPT2 properties, NMR spectrum
   Ute Becker             : Parallelization
   Giovanni Bistoni       : ED, misc. LED, open-shell LED, HFLD
   Martin Brehm           : Molecular dynamics
   Dmytro Bykov           : SCF Hessian
   Vijay G. Chilkuri      : MRCI spin determinant printing, contributions to CSF-ICE
   Dipayan Datta          : RHF DLPNO-CCSD density
   Achintya Kumar Dutta   : EOM-CC, STEOM-CC
   Dmitry Ganyushin       : Spin-Orbit,Spin-Spin,Magnetic field MRCI
   Miquel Garcia          : C-PCM and meta-GGA Hessian, CC/C-PCM, Gaussian charge scheme
   Yang Guo               : DLPNO-NEVPT2, F12-NEVPT2, CIM, IAO-localization
   Andreas Hansen         : Spin unrestricted coupled pair/coupled cluster methods
   Benjamin Helmich-Paris : MC-RPA, TRAH-SCF, COSX integrals
   Lee Huntington         : MR-EOM, pCC
   Robert Izsak           : Overlap fitted RIJCOSX, COSX-SCS-MP3, EOM
   Marcus Kettner         : VPT2
   Christian Kollmar      : KDIIS, OOCD, Brueckner-CCSD(T), CCSD density, CASPT2, CASPT2-K
   Simone Kossmann        : Meta GGA functionals, TD-DFT gradient, OOMP2, MP2 Hessian
   Martin Krupicka        : Initial AUTO-CI
   Lucas Lang             : DCDCAS
   Marvin Lechner         : AUTO-CI (C++ implementation), FIC-MRCC
   Dagmar Lenk            : GEPOL surface, SMD
   Dimitrios Liakos       : Extrapolation schemes; Compound Job, initial MDCI parallelization
   Dimitrios Manganas     : Further ROCIS development; embedding schemes
   Dimitrios Pantazis     : SARC Basis sets
   Anastasios Papadopoulos: AUTO-CI, single reference methods and gradients
   Taras Petrenko         : DFT Hessian,TD-DFT gradient, ASA, ECA, R-Raman, ABS, FL, XAS/XES, NRVS
   Peter Pinski           : DLPNO-MP2, DLPNO-MP2 Gradient
   Christoph Reimann      : Effective Core Potentials
   Marius Retegan         : Local ZFS, SOC
   Christoph Riplinger    : Optimizer, TS searches, QM/MM, DLPNO-CCSD(T), (RO)-DLPNO pert. Triples
   Tobias Risthaus        : Range-separated hybrids, TD-DFT gradient, RPA, STAB
   Michael Roemelt        : Original ROCIS implementation
   Masaaki Saitow         : Open-shell DLPNO-CCSD energy and density
   Barbara Sandhoefer     : DKH picture change effects
   Avijit Sen             : IP-ROCIS
   Kantharuban Sivalingam : CASSCF convergence, NEVPT2, FIC-MRCI
   Bernardo de Souza      : ESD, SOC TD-DFT
   Georgi Stoychev        : AutoAux, RI-MP2 NMR, DLPNO-MP2 response
   Willem Van den Heuvel  : Paramagnetic NMR
   Boris Wezisla          : Elementary symmetry handling
   Frank Wennmohs         : Technical directorship


 We gratefully acknowledge several colleagues who have allowed us to
 interface, adapt or use parts of their codes:
   Stefan Grimme, W. Hujo, H. Kruse, P. Pracht,  : VdW corrections, initial TS optimization,
                  C. Bannwarth, S. Ehlert          DFT functionals, gCP, sTDA/sTD-DF
   Ed Valeev, F. Pavosevic, A. Kumar             : LibInt (2-el integral package), F12 methods
   Garnet Chan, S. Sharma, J. Yang, R. Olivares  : DMRG
   Ulf Ekstrom                                   : XCFun DFT Library
   Mihaly Kallay                                 : mrcc  (arbitrary order and MRCC methods)
   Jiri Pittner, Ondrej Demel                    : Mk-CCSD
   Frank Weinhold                                : gennbo (NPA and NBO analysis)
   Christopher J. Cramer and Donald G. Truhlar   : smd solvation model
   Lars Goerigk                                  : TD-DFT with DH, B97 family of functionals
   V. Asgeirsson, H. Jonsson                     : NEB implementation
   FAccTs GmbH                                   : IRC, NEB, NEB-TS, DLPNO-Multilevel, CI-OPT
                                                   MM, QMMM, 2- and 3-layer-ONIOM, Crystal-QMMM,
                                                   LR-CPCM, SF, NACMEs, symmetry and pop. for TD-DFT,
                                                   nearIR, NL-DFT gradient (VV10), updates on ESD,
                                                   ML-optimized integration grids
   S Lehtola, MJT Oliveira, MAL Marques          : LibXC Library
   Liviu Ungur et al                             : ANISO software


 Your calculation uses the libint2 library for the computation of 2-el integrals
 For citations please refer to: http://libint.valeyev.net

 Your ORCA version has been built with support for libXC version: 5.1.0
 For citations please refer to: https://tddft.org/programs/libxc/

 This ORCA versions uses:
   CBLAS   interface :  Fast vector & matrix operations
   LAPACKE interface :  Fast linear algebra routines
   SCALAPACK package :  Parallel linear algebra routines
   Shared memory     :  Shared parallel matrices
   BLAS/LAPACK       :  OpenBLAS 0.3.15  USE64BITINT DYNAMIC_ARCH NO_AFFINITY SkylakeX SINGLE_THREADED
        Core in use  :  SkylakeX
   Copyright (c) 2011-2014, The OpenBLAS Project


================================================================================

----- Orbital basis set information -----
Your calculation utilizes the basis: EPR-III
   V. Barone, in Recent Advances in Density Functional Methods, Part 1 (ed. D. P. Chong), World Scientific, Singapore, 1995, p. 287.
   N. Rega, M. Cossi and V. Barone, J. Chem. Phys. 105, 11060 (1996).

----- AuxJ basis set information -----
Your calculation utilizes the AutoAux generation procedure.
  G. L. Stoychev, A. A. Auer, F. Neese, J. Chem. Theory Comput. 13, 554 (2017)

----- AuxC basis set information -----
Your calculation utilizes the AutoAux generation procedure.
  G. L. Stoychev, A. A. Auer, F. Neese, J. Chem. Theory Comput. 13, 554 (2017)

----- AuxJK basis set information -----
Your calculation utilizes the AutoAux generation procedure.
  G. L. Stoychev, A. A. Auer, F. Neese, J. Chem. Theory Comput. 13, 554 (2017)

================================================================================
                                        WARNINGS
                       Please study these warnings very carefully!
================================================================================


WARNING: your system is open-shell and RHF/RKS was chosen
  ===> : WILL SWITCH to UHF/UKS


INFO   : the flag for use of the SHARK integral package has been found!

================================================================================
                                       INPUT FILE
================================================================================
NAME = /home/rwth0701/scratch/cs681498/orcajob__30556164-bfLv/3327.inp
|  1> !B3LYP EPR-III Autoaux
|  2> !PAL4
|  3> 
|  4> * xyz 0 2
|  5>  C      0.4815686203    -14.3533995860    -10.2488254970
|  6>  H      0.6206021812    -15.3910653057    -10.1761408953
|  7>  H      1.1095439421    -13.5195660536     -9.7168185895
|  8>  H     -0.1529064934    -14.0097976940    -11.0630498753
|  9> *
| 10> 
| 11> %EPRNMR
| 12>         GTENSOR   TRUE
| 13>         NUCLEI    = ALL H {AISO, ADIP, AORB}
| 14>         NUCLEI    = ALL C {AISO, ADIP, AORB}
| 15> END
| 16> 
| 17> 
| 18>                          ****END OF INPUT****
================================================================================

                       ****************************
                       * Single Point Calculation *
                       ****************************

---------------------------------
CARTESIAN COORDINATES (ANGSTROEM)
---------------------------------
  C      0.481569  -14.353400  -10.248825
  H      0.620602  -15.391065  -10.176141
  H      1.109544  -13.519566   -9.716819
  H     -0.152906  -14.009798  -11.063050

----------------------------
CARTESIAN COORDINATES (A.U.)
----------------------------
  NO LB      ZA    FRAG     MASS         X           Y           Z
   0 C     6.0000    0    12.011    0.910033  -27.123994  -19.367473
   1 H     1.0000    0     1.008    1.172768  -29.084898  -19.230119
   2 H     1.0000    0     1.008    2.096734  -25.548277  -18.362126
   3 H     1.0000    0     1.008   -0.288951  -26.474681  -20.906134

--------------------------------
INTERNAL COORDINATES (ANGSTROEM)
--------------------------------
 C      0   0   0     0.000000000000     0.00000000     0.00000000
 H      1   0   0     1.049458683427     0.00000000     0.00000000
 H      1   2   0     1.171606894044   126.95908756     0.00000000
 H      1   2   3     1.087925672235   116.19200194   165.13945076

---------------------------
INTERNAL COORDINATES (A.U.)
---------------------------
 C      0   0   0     0.000000000000     0.00000000     0.00000000
 H      1   0   0     1.983189500543     0.00000000     0.00000000
 H      1   2   0     2.214016166358   126.95908756     0.00000000
 H      1   2   3     2.055881574587   116.19200194   165.13945076

---------------------
BASIS SET INFORMATION
---------------------
There are 2 groups of distinct atoms

 Group   1 Type C   : 12s8p2d1f contracted to 8s5p2d1f pattern {51111111/41111/11/1}
 Group   2 Type H   : 7s2p contracted to 5s2p pattern {31111/11}

Atom   0C    basis set group =>   1
Atom   1H    basis set group =>   2
Atom   2H    basis set group =>   2
Atom   3H    basis set group =>   2
---------------------------------
AUXILIARY/J BASIS SET INFORMATION
---------------------------------
There are 2 groups of distinct atoms

 Group   1 Type C   : 20s17p16d8f3g contracted to 20s17p16d8f3g pattern {11111111111111111111/11111111111111111/1111111111111111/11111111/111}
 Group   2 Type H   : 17s7p3d contracted to 17s7p3d pattern {11111111111111111/1111111/111}

Atom   0C    basis set group =>   1
Atom   1H    basis set group =>   2
Atom   2H    basis set group =>   2
Atom   3H    basis set group =>   2
---------------------------------
AUXILIARY/C BASIS SET INFORMATION
---------------------------------
There are 2 groups of distinct atoms

 Group   1 Type C   : 20s17p16d8f3g contracted to 20s17p16d8f3g pattern {11111111111111111111/11111111111111111/1111111111111111/11111111/111}
 Group   2 Type H   : 17s7p3d contracted to 17s7p3d pattern {11111111111111111/1111111/111}

Atom   0C    basis set group =>   1
Atom   1H    basis set group =>   2
Atom   2H    basis set group =>   2
Atom   3H    basis set group =>   2
----------------------------------
AUXILIARY/JK BASIS SET INFORMATION
----------------------------------
There are 2 groups of distinct atoms

 Group   1 Type C   : 20s17p16d8f3g contracted to 20s17p16d8f3g pattern {11111111111111111111/11111111111111111/1111111111111111/11111111/111}
 Group   2 Type H   : 17s7p3d contracted to 17s7p3d pattern {11111111111111111/1111111/111}

Atom   0C    basis set group =>   1
Atom   1H    basis set group =>   2
Atom   2H    basis set group =>   2
Atom   3H    basis set group =>   2


           ************************************************************
           *        Program running with 4 parallel MPI-processes     *
           *              working on a common directory               *
           ************************************************************
------------------------------------------------------------------------------
                           ORCA GTO INTEGRAL CALCULATION
                           -- RI-GTO INTEGRALS CHOSEN --
------------------------------------------------------------------------------
------------------------------------------------------------------------------
                   ___                                                        
                  /   \      - P O W E R E D   B Y -                         
                 /     \                                                     
                 |  |  |   _    _      __       _____    __    __             
                 |  |  |  | |  | |    /  \     |  _  \  |  |  /  |          
                  \  \/   | |  | |   /    \    | | | |  |  | /  /          
                 / \  \   | |__| |  /  /\  \   | |_| |  |  |/  /          
                |  |  |   |  __  | /  /__\  \  |    /   |      \           
                |  |  |   | |  | | |   __   |  |    \   |  |\   \          
                \     /   | |  | | |  |  |  |  | |\  \  |  | \   \       
                 \___/    |_|  |_| |__|  |__|  |_| \__\ |__|  \__/        
                                                                              
                      - O R C A' S   B I G   F R I E N D -                    
                                      &                                       
                       - I N T E G R A L  F E E D E R -                       
                                                                              
 v1 FN, 2020, v2 2021                                                         
------------------------------------------------------------------------------


Reading SHARK input file /home/rwth0701/scratch/cs681498/orcajob__30556164-bfLv/3327.SHARKINP.tmp ... ok
----------------------
SHARK INTEGRAL PACKAGE
----------------------

Number of atoms                             ...      4
Number of basis functions                   ...     73
Number of shells                            ...     37
Maximum angular momentum                    ...      3
Integral batch strategy                     ... SHARK/LIBINT Hybrid
RI-J (if used) integral strategy            ... SPLIT-RIJ (Revised 2003 algorithm where possible)
Printlevel                                  ...      1
Contraction scheme used                     ... SEGMENTED contraction
Coulomb Range Separation                    ... NOT USED
Exchange Range Separation                   ... NOT USED
Finite Nucleus Model                        ... NOT USED
Auxiliary Coulomb fitting basis             ... AVAILABLE
   # of basis functions in Aux-J            ...    393
   # of shells in Aux-J                     ...    145
   Maximum angular momentum in Aux-J        ...      4
Auxiliary J/K fitting basis                 ... AVAILABLE
   # of basis functions in Aux-JK           ...    393
   # of shells in Aux-JK                    ...    145
   Maximum angular momentum in Aux-JK       ...      4
Auxiliary Correlation fitting basis         ... AVAILABLE
   # of basis functions in Aux-C            ...    393
   # of shells in Aux-C                     ...    145
   Maximum angular momentum in Aux-C        ...      4
Auxiliary 'external' fitting basis          ... NOT available
Integral threshold                          ...     1.000000e-10
Primitive cut-off                           ...     1.000000e-11
Primitive pair pre-selection threshold      ...     1.000000e-11

Calculating pre-screening integrals         ... done (  0.0 sec) Dimension = 37
Organizing shell pair data                  ... done (  0.0 sec)
Shell pair information
Total number of shell pairs                 ...       703
Shell pairs after pre-screening             ...       688
Total number of primitive shell pairs       ...      1300
Primitive shell pairs kept                  ...      1182
          la=0 lb=0:    261 shell pairs
          la=1 lb=0:    253 shell pairs
          la=1 lb=1:     66 shell pairs
          la=2 lb=0:     46 shell pairs
          la=2 lb=1:     22 shell pairs
          la=2 lb=2:      3 shell pairs
          la=3 lb=0:     23 shell pairs
          la=3 lb=1:     11 shell pairs
          la=3 lb=2:      2 shell pairs
          la=3 lb=3:      1 shell pairs

Calculating one electron integrals          ... done (  0.0 sec)
Calculating RI/J V-Matrix + Cholesky decomp.... done (  0.1 sec)
Calculating RI/JK V-Matrix + Cholesky decomp... done (  0.1 sec)
Calculating RI/C V-Matrix + Cholesky decomp.... done (  0.1 sec)
Calculating Nuclear repulsion               ... done (  0.0 sec) ENN=      9.488803534401 Eh

SHARK setup successfully completed in   0.6 seconds

Maximum memory used throughout the entire GTOINT-calculation: 13.7 MB


           ************************************************************
           *        Program running with 4 parallel MPI-processes     *
           *              working on a common directory               *
           ************************************************************
-------------------------------------------------------------------------------
                                 ORCA SCF
-------------------------------------------------------------------------------

------------
SCF SETTINGS
------------
Hamiltonian:
 Density Functional     Method          .... DFT(GTOs)
 Exchange Functional    Exchange        .... B88
   X-Alpha parameter    XAlpha          ....  0.666667
   Becke's b parameter  XBeta           ....  0.004200
 Correlation Functional Correlation     .... LYP
 LDA part of GGA corr.  LDAOpt          .... VWN-5
 Gradients option       PostSCFGGA      .... off
 Hybrid DFT is turned on
   Fraction HF Exchange ScalHFX         ....  0.200000
   Scaling of DF-GGA-X  ScalDFX         ....  0.720000
   Scaling of DF-GGA-C  ScalDFC         ....  0.810000
   Scaling of DF-LDA-C  ScalLDAC        ....  1.000000
   Perturbative correction              ....  0.000000
   Density functional embedding theory  .... OFF
   NL short-range parameter             ....  4.800000
 RI-approximation to the Coulomb term is turned on
   Number of AuxJ basis functions       .... 393
   RIJ-COSX (HFX calculated with COS-X)).... on


General Settings:
 Integral files         IntName         .... /home/rwth0701/scratch/cs681498/orcajob__30556164-bfLv/3327
 Hartree-Fock type      HFTyp           .... UHF
 Total Charge           Charge          ....    0
 Multiplicity           Mult            ....    2
 Number of Electrons    NEL             ....    9
 Basis Dimension        Dim             ....   73
 Nuclear Repulsion      ENuc            ....      9.4888035344 Eh

Convergence Acceleration:
 DIIS                   CNVDIIS         .... on
   Start iteration      DIISMaxIt       ....    12
   Startup error        DIISStart       ....  0.200000
   # of expansion vecs  DIISMaxEq       ....     5
   Bias factor          DIISBfac        ....   1.050
   Max. coefficient     DIISMaxC        ....  10.000
 Trust-Rad. Augm. Hess. CNVTRAH         .... auto
   Auto Start mean grad. ratio tolernc. ....  1.125000
   Auto Start start iteration           ....    20
   Auto Start num. interpolation iter.  ....    10
   Max. Number of Micro iterations      ....    16
   Max. Number of Macro iterations      .... Maxiter - #DIIS iter
   Number of Davidson start vectors     ....     2
   Converg. threshold I  (grad. norm)   ....   5.000e-05
   Converg. threshold II (energy diff.) ....   1.000e-06
   Grad. Scal. Fac. for Micro threshold ....   0.100
   Minimum threshold for Micro iter.    ....   0.010
   NR start threshold (gradient norm)   ....   0.001
   Initial trust radius                 ....   0.400
   Minimum AH scaling param. (alpha)    ....   1.000
   Maximum AH scaling param. (alpha)    .... 1000.000
   Orbital update algorithm             .... Taylor
   White noise on init. David. guess    .... on
   Maximum white noise                  ....   0.010
   Quad. conv. algorithm                .... NR
 SOSCF                  CNVSOSCF        .... off
 Level Shifting         CNVShift        .... on
   Level shift para.    LevelShift      ....    0.2500
   Turn off err/grad.   ShiftErr        ....    0.0010
 Zerner damping         CNVZerner       .... off
 Static damping         CNVDamp         .... on
   Fraction old density DampFac         ....    0.7000
   Max. Damping (<1)    DampMax         ....    0.9800
   Min. Damping (>=0)   DampMin         ....    0.0000
   Turn off err/grad.   DampErr         ....    0.1000
 Fernandez-Rico         CNVRico         .... off

SCF Procedure:
 Maximum # iterations   MaxIter         ....   125
 SCF integral mode      SCFMode         .... Direct
   Integral package                     .... SHARK and LIBINT hybrid scheme
 Reset frequency        DirectResetFreq ....    20
 Integral Threshold     Thresh          ....  1.000e-10 Eh
 Primitive CutOff       TCut            ....  1.000e-11 Eh

Convergence Tolerance:
 Convergence Check Mode ConvCheckMode   .... Total+1el-Energy
 Convergence forced     ConvForced      .... 0
 Energy Change          TolE            ....  1.000e-06 Eh
 1-El. energy change                    ....  1.000e-03 Eh
 DIIS Error             TolErr          ....  1.000e-06


Diagonalization of the overlap matrix:
Smallest eigenvalue                        ... 1.667e-03
Time for diagonalization                   ...    0.001 sec
Threshold for overlap eigenvalues          ... 1.000e-08
Number of eigenvalues below threshold      ... 0
Time for construction of square roots      ...    0.014 sec
Total time needed                          ...    0.016 sec

Time for model grid setup =    0.062 sec

------------------------------
INITIAL GUESS: MODEL POTENTIAL
------------------------------
Loading Hartree-Fock densities                     ... done
Calculating cut-offs                               ... done
Initializing the effective Hamiltonian             ... done
Setting up the integral package (SHARK)            ... done
Starting the Coulomb interaction                   ... done (   0.0 sec)
Reading the grid                                   ... done
Mapping shells                                     ... done
Starting the XC term evaluation                    ... done (   0.0 sec)
  promolecular density results
     # of electrons  =      8.998315423
     EX              =     -5.960994725
     EC              =     -0.259575421
     EX+EC           =     -6.220570146
Transforming the Hamiltonian                       ... done (   0.0 sec)
Diagonalizing the Hamiltonian                      ... done (   0.0 sec)
Back transforming the eigenvectors                 ... done (   0.0 sec)
Now organizing SCF variables                       ... done
                      ------------------
                      INITIAL GUESS DONE (   0.1 sec)
                      ------------------
-------------------
DFT GRID GENERATION
-------------------

General Integration Accuracy     IntAcc      ... 4.388
Radial Grid Type                 RadialGrid  ... OptM3 with GC (2021)
Angular Grid (max. ang.)         AngularGrid ... 4 (Lebedev-302)
Angular grid pruning method      GridPruning ... 4 (adaptive)
Weight generation scheme         WeightScheme... Becke
Basis function cutoff            BFCut       ... 1.0000e-10
Integration weight cutoff        WCut        ... 1.0000e-14
Angular grids for H and He will be reduced by one unit
Partially contracted basis set               ... off
Rotationally invariant grid construction     ... off

Total number of grid points                  ...    17050
Total number of batches                      ...      268
Average number of points per batch           ...       63
Average number of grid points per atom       ...     4262
Time for grid setup =    0.119 sec

--------------------
COSX GRID GENERATION
--------------------

GRIDX 1
-------
General Integration Accuracy     IntAcc      ... 3.816
Radial Grid Type                 RadialGrid  ... OptM3 with GC (2021)
Angular Grid (max. ang.)         AngularGrid ... 1 (Lebedev-50)
Angular grid pruning method      GridPruning ... 4 (adaptive)
Weight generation scheme         WeightScheme... Becke
Basis function cutoff            BFCut       ... 1.0000e-10
Integration weight cutoff        WCut        ... 1.0000e-14
Angular grids for H and He will be reduced by one unit
Partially contracted basis set               ... on
Rotationally invariant grid construction     ... off

Total number of grid points                  ...     2154
Total number of batches                      ...       35
Average number of points per batch           ...       61
Average number of grid points per atom       ...      538
UseSFitting                                  ... on

GRIDX 2
-------
General Integration Accuracy     IntAcc      ... 4.020
Radial Grid Type                 RadialGrid  ... OptM3 with GC (2021)
Angular Grid (max. ang.)         AngularGrid ... 2 (Lebedev-110)
Angular grid pruning method      GridPruning ... 4 (adaptive)
Weight generation scheme         WeightScheme... Becke
Basis function cutoff            BFCut       ... 1.0000e-10
Integration weight cutoff        WCut        ... 1.0000e-14
Angular grids for H and He will be reduced by one unit
Partially contracted basis set               ... on
Rotationally invariant grid construction     ... off

Total number of grid points                  ...     5075
Total number of batches                      ...       82
Average number of points per batch           ...       61
Average number of grid points per atom       ...     1269
UseSFitting                                  ... on

GRIDX 3
-------
General Integration Accuracy     IntAcc      ... 4.338
Radial Grid Type                 RadialGrid  ... OptM3 with GC (2021)
Angular Grid (max. ang.)         AngularGrid ... 3 (Lebedev-194)
Angular grid pruning method      GridPruning ... 4 (adaptive)
Weight generation scheme         WeightScheme... Becke
Basis function cutoff            BFCut       ... 1.0000e-10
Integration weight cutoff        WCut        ... 1.0000e-14
Angular grids for H and He will be reduced by one unit
Partially contracted basis set               ... on
Rotationally invariant grid construction     ... off

Total number of grid points                  ...    11742
Total number of batches                      ...      185
Average number of points per batch           ...       63
Average number of grid points per atom       ...     2936
UseSFitting                                  ... on

Time for X-Grid setup             =    0.266 sec

--------------
SCF ITERATIONS
--------------
ITER       Energy         Delta-E        Max-DP      RMS-DP      [F,P]     Damp
               ***  Starting incremental Fock matrix formation  ***
  0    -39.7823701511   0.000000000000 0.01461094  0.00048396  0.0868610 0.7000
  1    -39.8001098602  -0.017739709113 0.00912172  0.00036222  0.0455350 0.7000
                               ***Turning on DIIS***
  2    -39.8079109843  -0.007801124020 0.01663153  0.00063270  0.0182554 0.0000
  3    -39.8185584510  -0.010647466777 0.00662342  0.00027352  0.0251976 0.0000
  4    -39.8218805352  -0.003322084197 0.00257833  0.00007604  0.0047215 0.0000
  5    -39.8220161398  -0.000135604600 0.00091216  0.00003254  0.0014059 0.0000
  6    -39.8220343896  -0.000018249791 0.00053550  0.00002585  0.0005273 0.0000
               *** Restarting incremental Fock matrix formation ***
                                   *** Resetting DIIS ***
  7    -39.8220404327  -0.000006043113 0.00011187  0.00000328  0.0000816 0.0000
                 **** Energy Check signals convergence ****

               *****************************************************
               *                     SUCCESS                       *
               *           SCF CONVERGED AFTER   8 CYCLES          *
               *****************************************************

Old exchange energy                            =     -1.236459608 Eh
New exchange energy                            =     -1.236459520 Eh
Exchange energy change after final integration =      0.000000088 Eh
Total energy after final integration           =    -39.822040447 Eh
Final COS-X integration done in                =     0.180 sec

----------------
TOTAL SCF ENERGY
----------------

Total Energy       :          -39.82204045 Eh           -1083.61281 eV

Components:
Nuclear Repulsion  :            9.48880353 Eh             258.20347 eV
Electronic Energy  :          -49.31084398 Eh           -1341.81628 eV
One Electron Energy:          -71.29917392 Eh           -1940.14916 eV
Two Electron Energy:           21.98832994 Eh             598.33288 eV
Max COSX asymmetry :            0.00000003 Eh               0.00000 eV

Virial components:
Potential Energy   :          -79.36751322 Eh           -2159.69983 eV
Kinetic Energy     :           39.54547277 Eh            1076.08702 eV
Virial Ratio       :            2.00699366


DFT components:
N(Alpha)           :        5.000000288085 electrons
N(Beta)            :        4.000000877099 electrons
N(Total)           :        9.000001165184 electrons
E(X)               :       -4.895687026590 Eh       
E(C)               :       -0.308540315509 Eh       
E(XC)              :       -5.204227342099 Eh       
DFET-embed. en.    :        0.000000000000 Eh       

---------------
SCF CONVERGENCE
---------------

  Last Energy change         ...   -1.0226e-07  Tolerance :   1.0000e-06
  Last MAX-Density change    ...    0.0000e+00  Tolerance :   1.0000e-05
  Last RMS-Density change    ...    0.0000e+00  Tolerance :   1.0000e-06
  Last DIIS Error            ...    5.2703e-05  Tolerance :   1.0000e-06

             **** THE GBW FILE WAS UPDATED (/home/rwth0701/scratch/cs681498/orcajob__30556164-bfLv/3327.gbw) ****
             **** DENSITY /home/rwth0701/scratch/cs681498/orcajob__30556164-bfLv/3327.scfp WAS UPDATED ****
             **** ENERGY FILE WAS UPDATED (/home/rwth0701/scratch/cs681498/orcajob__30556164-bfLv/3327.en.tmp) ****
----------------------
UHF SPIN CONTAMINATION
----------------------

Warning: in a DFT calculation there is little theoretical justification to 
         calculate <S**2> as in Hartree-Fock theory. We will do it anyways
         but you should keep in mind that the values have only limited relevance

Expectation value of <S**2>     :     0.753825
Ideal value S*(S+1) for S=0.5   :     0.750000
Deviation                       :     0.003825

             **** THE GBW FILE WAS UPDATED (/home/rwth0701/scratch/cs681498/orcajob__30556164-bfLv/3327.gbw) ****
             **** DENSITY /home/rwth0701/scratch/cs681498/orcajob__30556164-bfLv/3327.scfp WAS UPDATED ****
----------------
ORBITAL ENERGIES
----------------
                 SPIN UP ORBITALS
  NO   OCC          E(Eh)            E(eV) 
   0   1.0000     -10.190961      -277.3101 
   1   1.0000      -0.683480       -18.5984 
   2   1.0000      -0.429111       -11.6767 
   3   1.0000      -0.405129       -11.0241 
   4   1.0000      -0.236472        -6.4347 
   5   0.0000      -0.000155        -0.0042 
   6   0.0000       0.035406         0.9634 
   7   0.0000       0.037965         1.0331 
   8   0.0000       0.047311         1.2874 
   9   0.0000       0.078530         2.1369 
  10   0.0000       0.092660         2.5214 
  11   0.0000       0.096984         2.6391 
  12   0.0000       0.218901         5.9566 
  13   0.0000       0.226462         6.1623 
  14   0.0000       0.246068         6.6959 
  15   0.0000       0.275984         7.5099 
  16   0.0000       0.286742         7.8027 
  17   0.0000       0.310983         8.4623 
  18   0.0000       0.342473         9.3192 
  19   0.0000       0.545021        14.8308 
  20   0.0000       0.562836        15.3155 
  21   0.0000       0.736628        20.0447 
  22   0.0000       0.748758        20.3747 
  23   0.0000       0.772908        21.0319 
  24   0.0000       0.819502        22.2998 
  25   0.0000       0.872842        23.7512 
  26   0.0000       0.898531        24.4503 
  27   0.0000       0.922071        25.0908 
  28   0.0000       0.969015        26.3682 
  29   0.0000       1.047797        28.5120 
  30   0.0000       1.070744        29.1364 
  31   0.0000       1.089109        29.6362 
  32   0.0000       1.175449        31.9856 
  33   0.0000       1.183244        32.1977 
  34   0.0000       1.441359        39.2214 
  35   0.0000       1.447731        39.3948 
  36   0.0000       1.486729        40.4559 
  37   0.0000       1.694813        46.1182 
  38   0.0000       1.711437        46.5706 
  39   0.0000       1.748432        47.5772 
  40   0.0000       2.727341        74.2147 
  41   0.0000       2.749811        74.8261 
  42   0.0000       2.871222        78.1299 
  43   0.0000       2.889102        78.6165 
  44   0.0000       2.938259        79.9541 
  45   0.0000       2.972059        80.8738 
  46   0.0000       2.987944        81.3061 
  47   0.0000       3.141243        85.4776 
  48   0.0000       3.166279        86.1588 
  49   0.0000       3.246500        88.3418 
  50   0.0000       3.266910        88.8971 
  51   0.0000       3.631990        98.8315 
  52   0.0000       3.710228       100.9604 
  53   0.0000       3.819620       103.9372 
  54   0.0000       3.902352       106.1884 
  55   0.0000       3.915387       106.5431 
  56   0.0000       4.048589       110.1677 
  57   0.0000       4.105872       111.7265 
  58   0.0000       4.124434       112.2316 
  59   0.0000       4.140381       112.6655 
  60   0.0000       4.563111       124.1686 
  61   0.0000       4.980984       135.5395 
  62   0.0000       5.244729       142.7163 
  63   0.0000       5.424690       147.6133 
  64   0.0000       5.522481       150.2743 
  65   0.0000       5.981643       162.7688 
  66   0.0000       6.122595       166.6043 
  67   0.0000       7.691569       209.2982 
  68   0.0000      29.041410       790.2569 
  69   0.0000      37.046896      1008.0973 
  70   0.0000      37.193175      1012.0777 
  71   0.0000      37.227270      1013.0055 
  72   0.0000     133.492908      3632.5267 

                 SPIN DOWN ORBITALS
  NO   OCC          E(Eh)            E(eV) 
   0   1.0000     -10.176348      -276.9125 
   1   1.0000      -0.644103       -17.5269 
   2   1.0000      -0.419633       -11.4188 
   3   1.0000      -0.395814       -10.7706 
   4   0.0000      -0.078035        -2.1234 
   5   0.0000       0.003199         0.0871 
   6   0.0000       0.035157         0.9567 
   7   0.0000       0.037640         1.0242 
   8   0.0000       0.060553         1.6477 
   9   0.0000       0.081615         2.2209 
  10   0.0000       0.094225         2.5640 
  11   0.0000       0.099876         2.7178 
  12   0.0000       0.220372         5.9966 
  13   0.0000       0.227754         6.1975 
  14   0.0000       0.263184         7.1616 
  15   0.0000       0.294053         8.0016 
  16   0.0000       0.310881         8.4595 
  17   0.0000       0.316492         8.6122 
  18   0.0000       0.354941         9.6584 
  19   0.0000       0.569790        15.5048 
  20   0.0000       0.589602        16.0439 
  21   0.0000       0.738618        20.0988 
  22   0.0000       0.750587        20.4245 
  23   0.0000       0.800428        21.7808 
  24   0.0000       0.818173        22.2636 
  25   0.0000       0.877457        23.8768 
  26   0.0000       0.902455        24.5571 
  27   0.0000       0.938321        25.5330 
  28   0.0000       0.987589        26.8737 
  29   0.0000       1.075111        29.2553 
  30   0.0000       1.110351        30.2142 
  31   0.0000       1.124985        30.6124 
  32   0.0000       1.187321        32.3087 
  33   0.0000       1.196752        32.5653 
  34   0.0000       1.449277        39.4368 
  35   0.0000       1.465098        39.8674 
  36   0.0000       1.498400        40.7735 
  37   0.0000       1.706481        46.4357 
  38   0.0000       1.716946        46.7205 
  39   0.0000       1.754890        47.7530 
  40   0.0000       2.767253        75.3008 
  41   0.0000       2.788862        75.8888 
  42   0.0000       2.880372        78.3789 
  43   0.0000       2.935207        79.8710 
  44   0.0000       2.971178        80.8499 
  45   0.0000       2.980270        81.0973 
  46   0.0000       3.039796        82.7171 
  47   0.0000       3.194059        86.9148 
  48   0.0000       3.215706        87.5038 
  49   0.0000       3.304857        89.9297 
  50   0.0000       3.325559        90.4930 
  51   0.0000       3.634753        98.9066 
  52   0.0000       3.766533       102.4926 
  53   0.0000       3.818414       103.9043 
  54   0.0000       3.914481       106.5184 
  55   0.0000       3.918615       106.6309 
  56   0.0000       4.065882       110.6383 
  57   0.0000       4.108475       111.7973 
  58   0.0000       4.129380       112.3661 
  59   0.0000       4.164607       113.3247 
  60   0.0000       4.563647       124.1831 
  61   0.0000       4.998493       136.0159 
  62   0.0000       5.247656       142.7960 
  63   0.0000       5.423286       147.5751 
  64   0.0000       5.520060       150.2085 
  65   0.0000       5.982685       162.7971 
  66   0.0000       6.126769       166.7179 
  67   0.0000       7.726292       210.2431 
  68   0.0000      29.068271       790.9879 
  69   0.0000      37.034223      1007.7524 
  70   0.0000      37.181720      1011.7660 
  71   0.0000      37.216214      1012.7047 
  72   0.0000     133.500963      3632.7459 

                    ********************************
                    * MULLIKEN POPULATION ANALYSIS *
                    ********************************

--------------------------------------------
MULLIKEN ATOMIC CHARGES AND SPIN POPULATIONS
--------------------------------------------
   0 C :   -0.425903    1.104763
   1 H :    0.148882   -0.031071
   2 H :    0.140401   -0.039208
   3 H :    0.136621   -0.034484
Sum of atomic charges         :    0.0000000
Sum of atomic spin populations:    1.0000000

-----------------------------------------------------
MULLIKEN REDUCED ORBITAL CHARGES AND SPIN POPULATIONS
-----------------------------------------------------
CHARGE
  0 C s       :     3.346150  s :     3.346150
      pz      :     1.009778  p :     3.052127
      px      :     0.997897
      py      :     1.044452
      dz2     :     0.003715  d :     0.024770
      dxz     :     0.006057
      dyz     :     0.003781
      dx2y2   :     0.006060
      dxy     :     0.005157
      f0      :     0.000245  f :     0.002856
      f+1     :     0.000420
      f-1     :     0.000417
      f+2     :     0.000121
      f-2     :     0.000677
      f+3     :     0.000339
      f-3     :     0.000638
  1 H s       :     0.822223  s :     0.822223
      pz      :     0.009275  p :     0.028895
      px      :     0.009485
      py      :     0.010135
  2 H s       :     0.836183  s :     0.836183
      pz      :     0.007749  p :     0.023417
      px      :     0.008373
      py      :     0.007295
  3 H s       :     0.836990  s :     0.836990
      pz      :     0.010171  p :     0.026390
      px      :     0.009497
      py      :     0.006723

SPIN
  0 C s       :     0.071945  s :     0.071945
      pz      :     0.462999  p :     1.037143
      px      :     0.537221
      py      :     0.036923
      dz2     :    -0.000211  d :    -0.003024
      dxz     :    -0.002849
      dyz     :     0.000491
      dx2y2   :    -0.000687
      dxy     :     0.000232
      f0      :    -0.000176  f :    -0.001300
      f+1     :    -0.000309
      f-1     :    -0.000118
      f+2     :    -0.000015
      f-2     :    -0.000368
      f+3     :    -0.000108
      f-3     :    -0.000207
  1 H s       :    -0.042023  s :    -0.042023
      pz      :     0.005106  p :     0.010952
      px      :     0.005908
      py      :    -0.000061
  2 H s       :    -0.047919  s :    -0.047919
      pz      :     0.004325  p :     0.008711
      px      :     0.004483
      py      :    -0.000097
  3 H s       :    -0.044037  s :    -0.044037
      pz      :     0.004213  p :     0.009553
      px      :     0.005710
      py      :    -0.000370


                     *******************************
                     * LOEWDIN POPULATION ANALYSIS *
                     *******************************

-------------------------------------------
LOEWDIN ATOMIC CHARGES AND SPIN POPULATIONS
-------------------------------------------
   0 C :   -0.166230    0.916452
   1 H :    0.031184    0.036436
   2 H :    0.086244    0.016932
   3 H :    0.048802    0.030180

----------------------------------------------------
LOEWDIN REDUCED ORBITAL CHARGES AND SPIN POPULATIONS
----------------------------------------------------
CHARGE
  0 C s       :     2.899027  s :     2.899027
      pz      :     1.024029  p :     3.168719
      px      :     0.996491
      py      :     1.148198
      dz2     :     0.013184  d :     0.091103
      dxz     :     0.014809
      dyz     :     0.019096
      dx2y2   :     0.021813
      dxy     :     0.022201
      f0      :     0.000548  f :     0.007382
      f+1     :     0.001286
      f-1     :     0.001212
      f+2     :     0.000499
      f-2     :     0.001642
      f+3     :     0.000758
      f-3     :     0.001437
  1 H s       :     0.811777  s :     0.811777
      pz      :     0.040910  p :     0.157039
      px      :     0.042070
      py      :     0.074059
  2 H s       :     0.794455  s :     0.794455
      pz      :     0.035627  p :     0.119300
      px      :     0.041058
      py      :     0.042616
  3 H s       :     0.806571  s :     0.806571
      pz      :     0.059830  p :     0.144627
      px      :     0.049922
      py      :     0.034875

SPIN
  0 C s       :     0.023280  s :     0.023280
      pz      :     0.409992  p :     0.901769
      px      :     0.478754
      py      :     0.013023
      dz2     :    -0.000912  d :    -0.007320
      dxz     :    -0.002796
      dyz     :    -0.000734
      dx2y2   :    -0.001757
      dxy     :    -0.001121
      f0      :    -0.000159  f :    -0.001277
      f+1     :    -0.000283
      f-1     :    -0.000162
      f+2     :     0.000082
      f-2     :    -0.000381
      f+3     :    -0.000137
      f-3     :    -0.000238
  1 H s       :    -0.015402  s :    -0.015402
      pz      :     0.021791  p :     0.051839
      px      :     0.025234
      py      :     0.004813
  2 H s       :    -0.020682  s :    -0.020682
      pz      :     0.016091  p :     0.037613
      px      :     0.018851
      py      :     0.002672
  3 H s       :    -0.016372  s :    -0.016372
      pz      :     0.021282  p :     0.046552
      px      :     0.024412
      py      :     0.000858


                      *****************************
                      * MAYER POPULATION ANALYSIS *
                      *****************************

  NA   - Mulliken gross atomic population
  ZA   - Total nuclear charge
  QA   - Mulliken gross atomic charge
  VA   - Mayer's total valence
  BVA  - Mayer's bonded valence
  FA   - Mayer's free valence

  ATOM       NA         ZA         QA         VA         BVA        FA
  0 C      6.4259     6.0000    -0.4259     3.8690     2.9236     0.9453
  1 H      0.8511     1.0000     0.1489     0.9832     0.9813     0.0018
  2 H      0.8596     1.0000     0.1404     0.9834     0.9810     0.0023
  3 H      0.8634     1.0000     0.1366     0.9793     0.9773     0.0019

  Mayer bond orders larger than 0.100000
B(  0-C ,  1-H ) :   0.9745 B(  0-C ,  2-H ) :   0.9732 B(  0-C ,  3-H ) :   0.9759 


-------
TIMINGS
-------

Total SCF time: 0 days 0 hours 0 min 5 sec 

Total time                  ....       5.185 sec
Sum of individual times     ....       4.543 sec  ( 87.6%)

Fock matrix formation       ....       3.866 sec  ( 74.6%)
  Split-RI-J                ....       0.375 sec  (  9.7% of F)
  Chain of spheres X        ....       0.903 sec  ( 23.4% of F)
  XC integration            ....       1.598 sec  ( 41.3% of F)
    Basis function eval.    ....       0.112 sec  (  7.0% of XC)
    Density eval.           ....       0.110 sec  (  6.9% of XC)
    XC-Functional eval.     ....       0.102 sec  (  6.4% of XC)
    XC-Potential eval.      ....       0.158 sec  (  9.9% of XC)
Diagonalization             ....       0.061 sec  (  1.2%)
Density matrix formation    ....       0.005 sec  (  0.1%)
Population analysis         ....       0.053 sec  (  1.0%)
Initial guess               ....       0.050 sec  (  1.0%)
Orbital Transformation      ....       0.000 sec  (  0.0%)
Orbital Orthonormalization  ....       0.000 sec  (  0.0%)
DIIS solution               ....       0.060 sec  (  1.2%)
Grid generation             ....       0.448 sec  (  8.6%)

Maximum memory used throughout the entire SCF-calculation: 59.0 MB

-------------------------   --------------------
FINAL SINGLE POINT ENERGY       -39.822040446711
-------------------------   --------------------

   --->>> g-tensor requested, so NeedSOC=true

                            ***************************************
                            *     ORCA property calculations      *
                            ***************************************

                                    ---------------------
                                    Active property flags
                                    ---------------------
   (+) Dipole Moment
   (+) g-tensor
   (+) Nuclear properties (Hyperfine,Quadrupole)
   (+) Spin-Orbit Integrals are needed


------------------------------------------------------------------------------
                       ORCA ELECTRIC PROPERTIES CALCULATION
------------------------------------------------------------------------------

Dipole Moment Calculation                       ... on
Quadrupole Moment Calculation                   ... off
Polarizability Calculation                      ... off
GBWName                                         ... /home/rwth0701/scratch/cs681498/orcajob__30556164-bfLv/3327.gbw
Electron density                                ... /home/rwth0701/scratch/cs681498/orcajob__30556164-bfLv/3327.scfp
The origin for moment calculation is the CENTER OF MASS  = ( 0.926824, -27.106286 -19.394020)

-------------
DIPOLE MOMENT
-------------
                                X             Y             Z
Electronic contribution:     -0.06388      -0.10918       0.09981
Nuclear contribution   :      0.09933       0.10475      -0.15704
                        -----------------------------------------
Total Dipole Moment    :      0.03545      -0.00442      -0.05723
                        -----------------------------------------
Magnitude (a.u.)       :      0.06746
Magnitude (Debye)      :      0.17147



--------------------
Rotational spectrum 
--------------------
 
Rotational constants in cm-1:    10.170640     8.268392     4.597745 
Rotational constants in MHz : 304908.110809 247880.146198 137836.915816 

 Dipole components along the rotational axes: 
x,y,z [a.u.] :     0.012131    -0.013671    -0.064938 
x,y,z [Debye]:     0.030836    -0.034749    -0.165060 

 


           ************************************************************
           *        Program running with 4 parallel MPI-processes     *
           *              working on a common directory               *
           ************************************************************
------------------------------------------------------------------------------
                         ORCA SPIN-ORBIT COUPLING CALCULATION
------------------------------------------------------------------------------

GBW file                                    ... /home/rwth0701/scratch/cs681498/orcajob__30556164-bfLv/3327.gbw
Input density                               ... /home/rwth0701/scratch/cs681498/orcajob__30556164-bfLv/3327.scfp
Output integrals                            ... /home/rwth0701/scratch/cs681498/orcajob__30556164-bfLv/3327
Operator type                               ... Mean-field/Effective potential
   One-Electron Terms                       ... 1
   Coulomb Contribution                     ... 3
   Exchange Contribution                    ... 3
   Correlation Contribution                 ... 0
   Maximum number of centers                ... 4
SHARK 2-electron RIJ-SOMF                   ... done (  0.1 sec)
SHARK 1-electron  MaxCenter=4               ... done (  0.0 sec)
SHARK 2-electron DoJ,X=0,1 MaxCenter=1      ... done (  0.1 sec)

Maximum memory used throughout the entire SOC-calculation: 11.3 MB
Total time for SOC:  2.173


           ************************************************************
           *        Program running with 4 parallel MPI-processes     *
           *              working on a common directory               *
           ************************************************************
------------------------------------------------------------------------------
                                ORCA EPR/NMR CALCULATION
------------------------------------------------------------------------------

GBWName                      ... /home/rwth0701/scratch/cs681498/orcajob__30556164-bfLv/3327.gbw
Electron density             ... /home/rwth0701/scratch/cs681498/orcajob__30556164-bfLv/3327.scfp
Spin density                 ... /home/rwth0701/scratch/cs681498/orcajob__30556164-bfLv/3327.scfr
Spin-orbit integrals         ... /home/rwth0701/scratch/cs681498/orcajob__30556164-bfLv/3327
Treatment of gauge           ... GIAO (approximations 1/2el = 0,0)
Details of the CP(SCF) procedure:
       Solver   = POPLE   
       MaxIter  =    64   
       Tolerance=    1.000e-03
       COSX Grid=     1   
       Op-0     =   0-  4 =>   5- 72
       Op-1     =   0-  3 =>   4- 72
Multiplicity                 ... 2
g-tensor                     ... 1
NMR chemical shifts          ... 0
NMR spin-spin couplings      ... 0
NMR spectrum                 ... 0
Number of nuclei for epr/nmr ... 4
   Nucleus:   1H 
       Hyperfine : Isotope=    1 I=   0.500 P= 533.551
       Quadrupole: Isotope=    2 I=   1.000 Q=   0.003
       Spin-Orbit: Zeff=   1.000
       Nuclear Spin-Spin: Gn=   0.000
       EPRNMR Input: 
       rho(0)=N f(grad)=N a(iso)=Y a(dip)=Y a(orb)=Y sigma(nmr)=N spin-spin(nmr)=all-N,DSO-N,PSO-N,FC-N,SD-N
   Nucleus:   2H 
       Hyperfine : Isotope=    1 I=   0.500 P= 533.551
       Quadrupole: Isotope=    2 I=   1.000 Q=   0.003
       Spin-Orbit: Zeff=   1.000
       Nuclear Spin-Spin: Gn=   0.000
       EPRNMR Input: 
       rho(0)=N f(grad)=N a(iso)=Y a(dip)=Y a(orb)=Y sigma(nmr)=N spin-spin(nmr)=all-N,DSO-N,PSO-N,FC-N,SD-N
   Nucleus:   3H 
       Hyperfine : Isotope=    1 I=   0.500 P= 533.551
       Quadrupole: Isotope=    2 I=   1.000 Q=   0.003
       Spin-Orbit: Zeff=   1.000
       Nuclear Spin-Spin: Gn=   0.000
       EPRNMR Input: 
       rho(0)=N f(grad)=N a(iso)=Y a(dip)=Y a(orb)=Y sigma(nmr)=N spin-spin(nmr)=all-N,DSO-N,PSO-N,FC-N,SD-N
   Nucleus:   0C 
       Hyperfine : Isotope=   13 I=   0.500 P= 134.190
       Quadrupole: Isotope=   13 I=   0.500 Q=   0.000
       Spin-Orbit: Zeff=   3.600
       Nuclear Spin-Spin: Gn=   0.000
       EPRNMR Input: 
       rho(0)=N f(grad)=N a(iso)=Y a(dip)=Y a(orb)=Y sigma(nmr)=N spin-spin(nmr)=all-N,DSO-N,PSO-N,FC-N,SD-N
Forming RHS of the CP-SCF equations         ... 
Calculating right hand sides for GIAO treatment        ... 
  Entering RightHandSide GIAO. ScalHFX=    0.2000 NeedHFX=1
     -> 1-electron GIAO integrals will be done analytically
     -> RIJCOSX used in SCF. Same chosen for GIAO calculation.
     Making grid for GIAO integrations   ...

GRID GIAO
---------

General Integration Accuracy     IntAcc      ... 4.388
Radial Grid Type                 RadialGrid  ... OptM3 with GC (2021)
Angular Grid (max. ang.)         AngularGrid ... 4 (Lebedev-302)
Angular grid pruning method      GridPruning ... 4 (adaptive)
Weight generation scheme         WeightScheme... Becke
Basis function cutoff            BFCut       ... 1.0000e-10
Integration weight cutoff        WCut        ... 1.0000e-14
Angular grids for H and He will be reduced by one unit
Partially contracted basis set               ... off
Rotationally invariant grid construction     ... off

Total number of grid points                  ...    17050
Total number of batches                      ...      268
Average number of points per batch           ...       63
Average number of grid points per atom       ...     4262

  One-electron GIAO integrals (SHARK)     ... done
  Calculating G(B)[P]                     ... (RI-J: SHARK-ok) (COSX-ok) (add-J+K:ok) => dG/dB done
  DFT XC-terms                            ... done
  Extracting occupied and virtual blocks  ... 
  Operator  0  NO=   5 NV=  68 
  Operator  1  NO=   4 NV=  69 
  Transforming and RHS contribution       ... done
  Adding eps_i * S(B)_ai terms            ... done
  Projecting overlap derivatives          ... done
  Building G[dS/dB_ij] (COSX)             ... done
  Transforming to MO basis                ... done
  Summing G[dS/dB_ij] into RHS contribs.  ... done

  GIAO profiling information: 
    Total GIAO time               ...       0.8 sec
       GIAO 1-electron integrals  ...       0.0 sec (  0.4%)
       GIAO G(dS/dB) terms        ...       0.1 sec ( 12.7%)
       GIAO RI-J                  ...       0.1 sec ( 12.6%)
       GIAO COSX                  ...       0.2 sec ( 19.5%)
       GIAO XC-terms              ...       0.3 sec ( 36.5%)

  GIAO right hand side done


------------------------------------------------------------------------------
                           ORCA CP-SCF CALCULATION
------------------------------------------------------------------------------

Input orbitals are from        ... /home/rwth0701/scratch/cs681498/orcajob__30556164-bfLv/3327.gbw
Input Perturbation             ... /home/rwth0701/scratch/cs681498/orcajob__30556164-bfLv/3327.pin.tmp
Wavefunction output            ... /home/rwth0701/scratch/cs681498/orcajob__30556164-bfLv/3327.pout.tmp
Perturbation mode              ... Imaginary perturbation
Solver                         ... POPLE
Max. number of iterations      ... 64
Convergence tolerance          ... 1.000e-03
Integral handling              ... Direct
DFT GridXC                     ... 1
COSX GridX                     ... 1
COSX IntAccX                   ... 3.067
COSX Algorithm                 ... Auto
Number of perturbations        ... 3
Number of operators            ... 2
Orbital ranges used for CP-SCF:
 Operator 0:  Orbitals   0...  4  to   5... 72
 Operator 1:  Orbitals   0...  3  to   4... 72
Variables per perturbation     ... 616
DFT calculation                         ... on
XC functional terms                     ... off
Hybrid DFT                              ... on
   Exchange mixing (SCF)                ...  0.200
   Exchange mixing (CP-SCF)             ...  0.200
   GGA exch. scaling(SCF)               ...  0.720
   GGA exch. scaling (CP-SCF)           ...  0.720
   GGA corr. scaling (SCF)              ...  0.810
   GGA corr. scaling (CP-SCF)           ...  0.810

CP-SCF GRID
-----------

General Integration Accuracy     IntAcc      ... 3.467
Radial Grid Type                 RadialGrid  ... OptM3 with GC (2021)
Angular Grid (max. ang.)         AngularGrid ... 1 (Lebedev-50)
Angular grid pruning method      GridPruning ... 4 (adaptive)
Weight generation scheme         WeightScheme... Becke
Basis function cutoff            BFCut       ... 1.0000e-10
Integration weight cutoff        WCut        ... 1.0000e-14
Angular grids for H and He will be reduced by one unit
Partially contracted basis set               ... off
Rotationally invariant grid construction     ... off

Total number of grid points                  ...     2348
Total number of batches                      ...       38
Average number of points per batch           ...       61
Average number of grid points per atom       ...      587

CP-SCF GRIDX
------------

General Integration Accuracy     IntAcc      ... 3.067
Radial Grid Type                 RadialGrid  ... OptM3 with GC (2021)
Angular Grid (max. ang.)         AngularGrid ... 1 (Lebedev-50)
Angular grid pruning method      GridPruning ... 4 (adaptive)
Weight generation scheme         WeightScheme... Becke
Basis function cutoff            BFCut       ... 1.0000e-10
Integration weight cutoff        WCut        ... 1.0000e-14
Angular grids for H and He will be reduced by one unit
Partially contracted basis set               ... on
Rotationally invariant grid construction     ... off

Total number of grid points                  ...     1077
Total number of batches                      ...       20
Average number of points per batch           ...       53
Average number of grid points per atom       ...      269

Memory available               ... 1014.6 MB
Memory needed per perturbation ...   0.4 MB
Perturbations treated per batch... 3
Number of batches              ... 1
     CP-SCF ITERATION   0:   1.2056e+00 (   0.1 sec   0/  3 done)
     CP-SCF ITERATION   1:   2.4588e-02 (   0.1 sec   0/  3 done)
     CP-SCF ITERATION   2:   1.8025e-03 (   0.1 sec   0/  3 done)
     CP-SCF ITERATION   3:   7.4360e-05 (   0.1 sec   3/  3 done)
                    *** THE CP-SCF HAS CONVERGED ***

Forming final perturbed densities           ... done
Transforming perturbed density to AO basis  ... done

Magnetic field perturbation calculated in  1.378 sec
GIAO: Diamagnetic terms      (analytic)     (SHARK) ... done
GIAO: 1el-Paramagnetic terms (analytic)     (SHARK) ... done

-------------------
ELECTRONIC G-MATRIX
-------------------

 The g-matrix: 
              2.0025429    0.0000357    0.0003338
              0.0000318    2.0029015    0.0000099
              0.0003264   -0.0000041    2.0025851

 gel          2.0023193    2.0023193    2.0023193
 gRMC        -0.0001280   -0.0001280   -0.0001280
 gDSO(tot)    0.0000345    0.0000706    0.0000706
 gPSO(tot)    0.0000066    0.0006112    0.0006621
             ----------   ----------   ----------
 g(tot)       2.0022324    2.0028731    2.0029240 iso=  2.0026765
 Delta-g     -0.0000868    0.0005538    0.0006047 iso=  0.0003572
 Orientation: 
  X          -0.7297850    0.5012061    0.4649799
  Y           0.0338739   -0.6527734    0.7567955
  Z           0.6828370    0.5680486    0.4594065

Notes:  (1) The g-matrix conforms to the "BgS" spin Hamiltonian convention. 
        (2) The principal values are square roots of the eigenvalues of g*gT.
        (3) Orientations are eigenvectors of g*gT written as column vectors.
        (4) Individual contributions are projections of the full matrices onto the eigenvectors of g*gT.
        (5) Tensor is right-handed.


-----------------------------------------
ELECTRIC AND MAGNETIC HYPERFINE STRUCTURE
-----------------------------------------

 -----------------------------------------------------------
 Nucleus   1H : A:ISTP=    1 I=  0.5 P=533.5514 MHz/au**3
                Q:ISTP=    2 I=  1.0 Q=  0.0029 barn     
 -----------------------------------------------------------
 Solving for nuclear perturbation:
Forming RHS of the CP-SCF equations         ... 
Calc. nucleus orbit integrals (SHARK)       ... done

------------------------------------------------------------------------------
                           ORCA CP-SCF CALCULATION
------------------------------------------------------------------------------

Input orbitals are from        ... /home/rwth0701/scratch/cs681498/orcajob__30556164-bfLv/3327.gbw
Input Perturbation             ... /home/rwth0701/scratch/cs681498/orcajob__30556164-bfLv/3327.pin.tmp
Wavefunction output            ... /home/rwth0701/scratch/cs681498/orcajob__30556164-bfLv/3327.pout.tmp
Perturbation mode              ... Imaginary perturbation
Solver                         ... POPLE
Max. number of iterations      ... 64
Convergence tolerance          ... 1.000e-03
Integral handling              ... Direct
DFT GridXC                     ... 1
COSX GridX                     ... 1
COSX IntAccX                   ... 3.067
COSX Algorithm                 ... Auto
Number of perturbations        ... 3
Number of operators            ... 2
Orbital ranges used for CP-SCF:
 Operator 0:  Orbitals   0...  4  to   5... 72
 Operator 1:  Orbitals   0...  3  to   4... 72
Variables per perturbation     ... 616
DFT calculation                         ... on
XC functional terms                     ... off
Hybrid DFT                              ... on
   Exchange mixing (SCF)                ...  0.200
   Exchange mixing (CP-SCF)             ...  0.200
   GGA exch. scaling(SCF)               ...  0.720
   GGA exch. scaling (CP-SCF)           ...  0.720
   GGA corr. scaling (SCF)              ...  0.810
   GGA corr. scaling (CP-SCF)           ...  0.810

CP-SCF GRID
-----------

General Integration Accuracy     IntAcc      ... 3.467
Radial Grid Type                 RadialGrid  ... OptM3 with GC (2021)
Angular Grid (max. ang.)         AngularGrid ... 1 (Lebedev-50)
Angular grid pruning method      GridPruning ... 4 (adaptive)
Weight generation scheme         WeightScheme... Becke
Basis function cutoff            BFCut       ... 1.0000e-10
Integration weight cutoff        WCut        ... 1.0000e-14
Angular grids for H and He will be reduced by one unit
Partially contracted basis set               ... off
Rotationally invariant grid construction     ... off

Total number of grid points                  ...     2348
Total number of batches                      ...       38
Average number of points per batch           ...       61
Average number of grid points per atom       ...      587

CP-SCF GRIDX
------------

General Integration Accuracy     IntAcc      ... 3.067
Radial Grid Type                 RadialGrid  ... OptM3 with GC (2021)
Angular Grid (max. ang.)         AngularGrid ... 1 (Lebedev-50)
Angular grid pruning method      GridPruning ... 4 (adaptive)
Weight generation scheme         WeightScheme... Becke
Basis function cutoff            BFCut       ... 1.0000e-10
Integration weight cutoff        WCut        ... 1.0000e-14
Angular grids for H and He will be reduced by one unit
Partially contracted basis set               ... on
Rotationally invariant grid construction     ... off

Total number of grid points                  ...     1077
Total number of batches                      ...       20
Average number of points per batch           ...       53
Average number of grid points per atom       ...      269

Memory available               ... 968.0 MB
Memory needed per perturbation ...   0.4 MB
Perturbations treated per batch... 3
Number of batches              ... 1
     CP-SCF ITERATION   0:   7.6773e-02 (   0.1 sec   0/  3 done)
     CP-SCF ITERATION   1:   2.7565e-03 (   0.1 sec   0/  3 done)
     CP-SCF ITERATION   2:   1.9806e-04 (   0.1 sec   3/  3 done)
                    *** THE CP-SCF HAS CONVERGED ***

Forming final perturbed densities           ... done
Transforming perturbed density to AO basis  ... done

 Raw HFC matrix (all values in MHz): 
 -----------------------------------
               -79.0025              -9.3854             -21.4028
                -9.3864             -24.0267              -6.8604
               -21.4030              -6.8589             -82.6450

 A(FC)         -61.9053             -61.9053             -61.9053
 A(SD)          39.6315               2.4281             -42.0596
 A(ORB+DIA)      0.0104              -0.0004               0.0318    A(PC) =   0.0139
 A(ORB)          0.0051               0.0007               0.0303    A(PC) =   0.0120
 A(DIA)          0.0053              -0.0012               0.0015    A(PC) =   0.0019
             ----------           ----------           ----------
 A(Tot)        -22.2635             -59.4777            -103.9331    A(iso)=  -61.8914
 Orientation: 
  X           0.1397908            0.7244971            0.6749537
  Y          -0.9881920            0.0588931            0.1414501
  Z           0.0627300           -0.6867573            0.7241750

Notes:  (1) The A matrix conforms to the "SAI" spin Hamiltonian convention.
        (2) Tensor is right-handed.

 -----------------------------------------------------------
 Nucleus   2H : A:ISTP=    1 I=  0.5 P=533.5514 MHz/au**3
                Q:ISTP=    2 I=  1.0 Q=  0.0029 barn     
 -----------------------------------------------------------
 Solving for nuclear perturbation:
Forming RHS of the CP-SCF equations         ... 
Calc. nucleus orbit integrals (SHARK)       ... done

------------------------------------------------------------------------------
                           ORCA CP-SCF CALCULATION
------------------------------------------------------------------------------

Input orbitals are from        ... /home/rwth0701/scratch/cs681498/orcajob__30556164-bfLv/3327.gbw
Input Perturbation             ... /home/rwth0701/scratch/cs681498/orcajob__30556164-bfLv/3327.pin.tmp
Wavefunction output            ... /home/rwth0701/scratch/cs681498/orcajob__30556164-bfLv/3327.pout.tmp
Perturbation mode              ... Imaginary perturbation
Solver                         ... POPLE
Max. number of iterations      ... 64
Convergence tolerance          ... 1.000e-03
Integral handling              ... Direct
DFT GridXC                     ... 1
COSX GridX                     ... 1
COSX IntAccX                   ... 3.067
COSX Algorithm                 ... Auto
Number of perturbations        ... 3
Number of operators            ... 2
Orbital ranges used for CP-SCF:
 Operator 0:  Orbitals   0...  4  to   5... 72
 Operator 1:  Orbitals   0...  3  to   4... 72
Variables per perturbation     ... 616
DFT calculation                         ... on
XC functional terms                     ... off
Hybrid DFT                              ... on
   Exchange mixing (SCF)                ...  0.200
   Exchange mixing (CP-SCF)             ...  0.200
   GGA exch. scaling(SCF)               ...  0.720
   GGA exch. scaling (CP-SCF)           ...  0.720
   GGA corr. scaling (SCF)              ...  0.810
   GGA corr. scaling (CP-SCF)           ...  0.810

CP-SCF GRID
-----------

General Integration Accuracy     IntAcc      ... 3.467
Radial Grid Type                 RadialGrid  ... OptM3 with GC (2021)
Angular Grid (max. ang.)         AngularGrid ... 1 (Lebedev-50)
Angular grid pruning method      GridPruning ... 4 (adaptive)
Weight generation scheme         WeightScheme... Becke
Basis function cutoff            BFCut       ... 1.0000e-10
Integration weight cutoff        WCut        ... 1.0000e-14
Angular grids for H and He will be reduced by one unit
Partially contracted basis set               ... off
Rotationally invariant grid construction     ... off

Total number of grid points                  ...     2348
Total number of batches                      ...       38
Average number of points per batch           ...       61
Average number of grid points per atom       ...      587

CP-SCF GRIDX
------------

General Integration Accuracy     IntAcc      ... 3.067
Radial Grid Type                 RadialGrid  ... OptM3 with GC (2021)
Angular Grid (max. ang.)         AngularGrid ... 1 (Lebedev-50)
Angular grid pruning method      GridPruning ... 4 (adaptive)
Weight generation scheme         WeightScheme... Becke
Basis function cutoff            BFCut       ... 1.0000e-10
Integration weight cutoff        WCut        ... 1.0000e-14
Angular grids for H and He will be reduced by one unit
Partially contracted basis set               ... on
Rotationally invariant grid construction     ... off

Total number of grid points                  ...     1077
Total number of batches                      ...       20
Average number of points per batch           ...       53
Average number of grid points per atom       ...      269

Memory available               ... 967.8 MB
Memory needed per perturbation ...   0.4 MB
Perturbations treated per batch... 3
Number of batches              ... 1
     CP-SCF ITERATION   0:   5.3315e-02 (   0.1 sec   0/  3 done)
     CP-SCF ITERATION   1:   2.1687e-03 (   0.1 sec   0/  3 done)
     CP-SCF ITERATION   2:   1.8283e-04 (   0.1 sec   3/  3 done)
                    *** THE CP-SCF HAS CONVERGED ***

Forming final perturbed densities           ... done
Transforming perturbed density to AO basis  ... done

 Raw HFC matrix (all values in MHz): 
 -----------------------------------
               -65.6011              25.0801               1.4915
                25.0794             -65.4150              23.7914
                 1.4915              23.7921             -71.1092

 A(FC)         -67.3881             -67.3881             -67.3881
 A(SD)          35.9738              -2.5734             -33.4004
 A(ORB+DIA)      0.0129              -0.0006               0.0268    A(PC) =   0.0130
 A(ORB)          0.0089               0.0004               0.0257    A(PC) =   0.0117
 A(DIA)          0.0040              -0.0010               0.0010    A(PC) =   0.0013
             ----------           ----------           ----------
 A(Tot)        -31.4014             -69.9622            -100.7617    A(iso)=  -67.3751
 Orientation: 
  X           0.5416137           -0.6935327            0.4750441
  Y           0.7119745            0.0780084           -0.6978589
  Z           0.4469305            0.7161893            0.5360280

Notes:  (1) The A matrix conforms to the "SAI" spin Hamiltonian convention.
        (2) Tensor is right-handed.

 -----------------------------------------------------------
 Nucleus   3H : A:ISTP=    1 I=  0.5 P=533.5514 MHz/au**3
                Q:ISTP=    2 I=  1.0 Q=  0.0029 barn     
 -----------------------------------------------------------
 Solving for nuclear perturbation:
Forming RHS of the CP-SCF equations         ... 
Calc. nucleus orbit integrals (SHARK)       ... done

------------------------------------------------------------------------------
                           ORCA CP-SCF CALCULATION
------------------------------------------------------------------------------

Input orbitals are from        ... /home/rwth0701/scratch/cs681498/orcajob__30556164-bfLv/3327.gbw
Input Perturbation             ... /home/rwth0701/scratch/cs681498/orcajob__30556164-bfLv/3327.pin.tmp
Wavefunction output            ... /home/rwth0701/scratch/cs681498/orcajob__30556164-bfLv/3327.pout.tmp
Perturbation mode              ... Imaginary perturbation
Solver                         ... POPLE
Max. number of iterations      ... 64
Convergence tolerance          ... 1.000e-03
Integral handling              ... Direct
DFT GridXC                     ... 1
COSX GridX                     ... 1
COSX IntAccX                   ... 3.067
COSX Algorithm                 ... Auto
Number of perturbations        ... 3
Number of operators            ... 2
Orbital ranges used for CP-SCF:
 Operator 0:  Orbitals   0...  4  to   5... 72
 Operator 1:  Orbitals   0...  3  to   4... 72
Variables per perturbation     ... 616
DFT calculation                         ... on
XC functional terms                     ... off
Hybrid DFT                              ... on
   Exchange mixing (SCF)                ...  0.200
   Exchange mixing (CP-SCF)             ...  0.200
   GGA exch. scaling(SCF)               ...  0.720
   GGA exch. scaling (CP-SCF)           ...  0.720
   GGA corr. scaling (SCF)              ...  0.810
   GGA corr. scaling (CP-SCF)           ...  0.810

CP-SCF GRID
-----------

General Integration Accuracy     IntAcc      ... 3.467
Radial Grid Type                 RadialGrid  ... OptM3 with GC (2021)
Angular Grid (max. ang.)         AngularGrid ... 1 (Lebedev-50)
Angular grid pruning method      GridPruning ... 4 (adaptive)
Weight generation scheme         WeightScheme... Becke
Basis function cutoff            BFCut       ... 1.0000e-10
Integration weight cutoff        WCut        ... 1.0000e-14
Angular grids for H and He will be reduced by one unit
Partially contracted basis set               ... off
Rotationally invariant grid construction     ... off

Total number of grid points                  ...     2348
Total number of batches                      ...       38
Average number of points per batch           ...       61
Average number of grid points per atom       ...      587

CP-SCF GRIDX
------------

General Integration Accuracy     IntAcc      ... 3.067
Radial Grid Type                 RadialGrid  ... OptM3 with GC (2021)
Angular Grid (max. ang.)         AngularGrid ... 1 (Lebedev-50)
Angular grid pruning method      GridPruning ... 4 (adaptive)
Weight generation scheme         WeightScheme... Becke
Basis function cutoff            BFCut       ... 1.0000e-10
Integration weight cutoff        WCut        ... 1.0000e-14
Angular grids for H and He will be reduced by one unit
Partially contracted basis set               ... on
Rotationally invariant grid construction     ... off

Total number of grid points                  ...     1077
Total number of batches                      ...       20
Average number of points per batch           ...       53
Average number of grid points per atom       ...      269

Memory available               ... 967.7 MB
Memory needed per perturbation ...   0.4 MB
Perturbations treated per batch... 3
Number of batches              ... 1
     CP-SCF ITERATION   0:   5.7423e-02 (   0.1 sec   0/  3 done)
     CP-SCF ITERATION   1:   2.3263e-03 (   0.1 sec   0/  3 done)
     CP-SCF ITERATION   2:   1.6642e-04 (   0.1 sec   3/  3 done)
                    *** THE CP-SCF HAS CONVERGED ***

Forming final perturbed densities           ... done
Transforming perturbed density to AO basis  ... done

 Raw HFC matrix (all values in MHz): 
 -----------------------------------
               -50.3014             -15.6032              14.3698
               -15.6024             -92.2941             -17.3769
                14.3699             -17.3781             -40.5995

 A(FC)         -61.0789             -61.0789             -61.0789
 A(SD)          38.5290               0.5925             -39.1215
 A(ORB+DIA)      0.0114              -0.0005               0.0309    A(PC) =   0.0139
 A(ORB)          0.0065               0.0006               0.0295    A(PC) =   0.0122
 A(DIA)          0.0048              -0.0011               0.0014    A(PC) =   0.0017
             ----------           ----------           ----------
 A(Tot)        -22.5386             -60.4870            -100.1695    A(iso)=  -61.0650
 Orientation: 
  X          -0.5702229            0.7877687           -0.2329512
  Y           0.3164047           -0.0510827           -0.9472479
  Z          -0.7581121           -0.6138493           -0.2201252

Notes:  (1) The A matrix conforms to the "SAI" spin Hamiltonian convention.
        (2) Tensor is right-handed.

 -----------------------------------------------------------
 Nucleus   0C : A:ISTP=   13 I=  0.5 P=134.1903 MHz/au**3
                Q:ISTP=   13 I=  0.5 Q=  0.0000 barn     
 -----------------------------------------------------------
 Solving for nuclear perturbation:
Forming RHS of the CP-SCF equations         ... 
Calc. nucleus orbit integrals (SHARK)       ... done

------------------------------------------------------------------------------
                           ORCA CP-SCF CALCULATION
------------------------------------------------------------------------------

Input orbitals are from        ... /home/rwth0701/scratch/cs681498/orcajob__30556164-bfLv/3327.gbw
Input Perturbation             ... /home/rwth0701/scratch/cs681498/orcajob__30556164-bfLv/3327.pin.tmp
Wavefunction output            ... /home/rwth0701/scratch/cs681498/orcajob__30556164-bfLv/3327.pout.tmp
Perturbation mode              ... Imaginary perturbation
Solver                         ... POPLE
Max. number of iterations      ... 64
Convergence tolerance          ... 1.000e-03
Integral handling              ... Direct
DFT GridXC                     ... 1
COSX GridX                     ... 1
COSX IntAccX                   ... 3.067
COSX Algorithm                 ... Auto
Number of perturbations        ... 3
Number of operators            ... 2
Orbital ranges used for CP-SCF:
 Operator 0:  Orbitals   0...  4  to   5... 72
 Operator 1:  Orbitals   0...  3  to   4... 72
Variables per perturbation     ... 616
DFT calculation                         ... on
XC functional terms                     ... off
Hybrid DFT                              ... on
   Exchange mixing (SCF)                ...  0.200
   Exchange mixing (CP-SCF)             ...  0.200
   GGA exch. scaling(SCF)               ...  0.720
   GGA exch. scaling (CP-SCF)           ...  0.720
   GGA corr. scaling (SCF)              ...  0.810
   GGA corr. scaling (CP-SCF)           ...  0.810

CP-SCF GRID
-----------

General Integration Accuracy     IntAcc      ... 3.467
Radial Grid Type                 RadialGrid  ... OptM3 with GC (2021)
Angular Grid (max. ang.)         AngularGrid ... 1 (Lebedev-50)
Angular grid pruning method      GridPruning ... 4 (adaptive)
Weight generation scheme         WeightScheme... Becke
Basis function cutoff            BFCut       ... 1.0000e-10
Integration weight cutoff        WCut        ... 1.0000e-14
Angular grids for H and He will be reduced by one unit
Partially contracted basis set               ... off
Rotationally invariant grid construction     ... off

Total number of grid points                  ...     2348
Total number of batches                      ...       38
Average number of points per batch           ...       61
Average number of grid points per atom       ...      587

CP-SCF GRIDX
------------

General Integration Accuracy     IntAcc      ... 3.067
Radial Grid Type                 RadialGrid  ... OptM3 with GC (2021)
Angular Grid (max. ang.)         AngularGrid ... 1 (Lebedev-50)
Angular grid pruning method      GridPruning ... 4 (adaptive)
Weight generation scheme         WeightScheme... Becke
Basis function cutoff            BFCut       ... 1.0000e-10
Integration weight cutoff        WCut        ... 1.0000e-14
Angular grids for H and He will be reduced by one unit
Partially contracted basis set               ... on
Rotationally invariant grid construction     ... off

Total number of grid points                  ...     1077
Total number of batches                      ...       20
Average number of points per batch           ...       53
Average number of grid points per atom       ...      269

Memory available               ... 967.6 MB
Memory needed per perturbation ...   0.4 MB
Perturbations treated per batch... 3
Number of batches              ... 1
     CP-SCF ITERATION   0:   1.1708e+00 (   0.1 sec   0/  3 done)
     CP-SCF ITERATION   1:   4.2839e-02 (   0.1 sec   0/  3 done)
     CP-SCF ITERATION   2:   3.1817e-03 (   0.1 sec   0/  3 done)
     CP-SCF ITERATION   3:   1.4406e-04 (   0.1 sec   3/  3 done)
                    *** THE CP-SCF HAS CONVERGED ***

Forming final perturbed densities           ... done
Transforming perturbed density to AO basis  ... done

 Raw HFC matrix (all values in MHz): 
 -----------------------------------
               151.9601              -4.1320            -119.6856
                -4.1320              21.7004               4.2472
              -119.6855               4.2472             132.9622

 A(FC)         102.3265             102.3265             102.3265
 A(SD)         -80.6974             -79.6576             160.3550
 A(ORB+DIA)     -0.1791              -0.1646              -0.0131    A(PC) =  -0.1189
 A(ORB)         -0.1795              -0.1649              -0.0130    A(PC) =  -0.1192
 A(DIA)          0.0004               0.0004              -0.0001    A(PC) =   0.0002
             ----------           ----------           ----------
 A(Tot)         21.4500              22.5044             262.6683    A(iso)=  102.2076
 Orientation: 
  X          -0.1971438           -0.6495636           -0.7343033
  Y           0.9485612           -0.3156408            0.0245482
  Z          -0.2477217           -0.6916921            0.6783775

Notes:  (1) The A matrix conforms to the "SAI" spin Hamiltonian convention.
        (2) Tensor is right-handed.


--------------------------------------------------------------------------------
----------------------------------------------------------------------------
                           ORCA EULER ANGLE PROGRAM
----------------------------------------------------------------------------

Only g-tensor available        -->  using g-tensor as reference tensor

Reference tensor               ...  g

g-tensor ordering              ...  |g_min> --> |gx>
                                    |g_mid> --> |gy>
                                    |g_max> --> |gz>

A- and EFG-tensor ordering     ...  the axes |Ax>, |Qx>, |Ay>, etc. are assigned
                                    such that the Euler rotation is minimal. You
                                    can find the respective eigenvalues as Ax,
                                    EFGx, Ay, etc. in the tables below.
                                    The relation of |Ax>, |Ay>,  etc. to Amin, Amid, etc.
                                    (as printed in the ORCA EPR/NMR CALCULATION Output)
                                    is obtained in the detailed printout.

Euler rotation around          ...  z - y - z
   First rotation              -->  by alpha around z
   Second rotation             -->  by beta around y'
   Third rotation              -->  by gamma around z''
   Positive / Negative angle   -->  clockwise / counterclockwise rotation

Plot EFG-tensors                    (-)
Plot HFC-tensors                    (-)
Detailed Printout                   (-)

-------------------------------------------------------------------------
          Euler rotation of hyperfine tensor to g-tensor
-------------------------------------------------------------------------

-------------------------------------------------------------------
 Atom  |   Alpha    Beta    Gamma   |   Ax       Ay       Az 
       |          [degrees]         |           [MHz]         
-------------------------------------------------------------------
  1H      -95.8     41.1     90.6     -59.48   -22.26  -103.93
  2H      -42.9      5.1     42.6     -69.96  -100.76   -31.40
  3H       97.0     22.1    -91.9     -60.49   -22.54  -100.17
  0C      -91.3     30.8     91.0     262.67    21.45    22.50
-------------------------------------------------------------------


Maximum memory used throughout the entire EPRNMR-calculation: 67.6 MB

Timings for individual modules:

Sum of individual times         ...       18.901 sec (=   0.315 min)
GTO integral calculation        ...        2.953 sec (=   0.049 min)  15.6 %
Spin-Orbit-Coupling Matrices    ...        2.163 sec (=   0.036 min)  11.4 %
SCF iterations                  ...        7.446 sec (=   0.124 min)  39.4 %
EPR/NMR calculation             ...        6.339 sec (=   0.106 min)  33.5 %
                             ****ORCA TERMINATED NORMALLY****
TOTAL RUN TIME: 0 days 0 hours 0 minutes 21 seconds 225 msec
