4
# ORCA AIMD Position Step 0, t=0.00 fs, E_Pot=-39.82314971 Hartree, Unit is Angstrom
 C     12.6022894301     -0.6266926546     -7.1846322451
 H     12.3092559322     -1.4837953326     -6.4853588307
 H     13.1769622509      0.2068786471     -6.7587485437
 H     12.0584043831     -0.4595369654     -8.0963961825
4
# ORCA AIMD Position Step 1, t=0.50 fs, E_Pot=-39.82252114 Hartree, Unit is Angstrom
 C     12.6065148262     -0.6350293234     -7.1836101737
 H     12.2781718097     -1.4837565887     -6.4800201701
 H     13.1906462802      0.1932654227     -6.7694796891
 H     12.0715790803     -0.4376258161     -8.0920257690
4
# ORCA AIMD Position Step 2, t=1.00 fs, E_Pot=-39.82206289 Hartree, Unit is Angstrom
 C     12.6106647450     -0.6435023050     -7.1822443052
 H     12.2486347619     -1.4802513960     -6.4779029893
 H     13.2040146595      0.1785651850     -6.7804095596
 H     12.0843062946     -0.4162346228     -8.0883592576
4
# ORCA AIMD Position Step 3, t=1.50 fs, E_Pot=-39.82181460 Hartree, Unit is Angstrom
 C     12.6147116698     -0.6521108979     -7.1805573406
 H     12.2208460905     -1.4732252059     -6.4790417830
 H     13.2173356652      0.1629046246     -6.7911532540
 H     12.0964417687     -0.3955485389     -8.0854757681
4
# ORCA AIMD Position Step 4, t=2.00 fs, E_Pot=-39.82174993 Hartree, Unit is Angstrom
 C     12.6186245208     -0.6608413194     -7.1785959898
 H     12.1949406721     -1.4628067803     -6.4833171255
 H     13.2309042302      0.1464502541     -6.8013221380
 H     12.1079232983     -0.3757660487     -8.0833263117
4
# ORCA AIMD Position Step 5, t=2.50 fs, E_Pot=-39.82178585 Hartree, Unit is Angstrom
 C     12.6223734324     -0.6696639749     -7.1764285670
 H     12.1709598104     -1.4493046678     -6.4904477209
 H     13.2450207553      0.1293748712     -6.8105472141
 H     12.1187624960     -0.3571015919     -8.0817471517
4
# ORCA AIMD Position Step 6, t=3.00 fs, E_Pot=-39.82180337 Hartree, Unit is Angstrom
 C     12.6259350437     -0.6785318755     -7.1741406334
 H     12.1488309439     -1.4332008459     -6.4999903858
 H     13.2599648109      0.1118276342     -6.8184988438
 H     12.1290285929     -0.3397806654     -8.0804919743
4
# ORCA AIMD Position Step 7, t=3.50 fs, E_Pot=-39.82167710 Hartree, Unit is Angstrom
 C     12.6292980633     -0.6873801619     -7.1718299063
 H     12.1283485889     -1.4151394664     -6.5113438218
 H     13.2759681410      0.0939062557     -6.8249033936
 H     12.1388283094     -0.3240285845     -8.0792719875
4
# ORCA AIMD Position Step 8, t=4.00 fs, E_Pot=-39.82131385 Hartree, Unit is Angstrom
 C     12.6324679439     -0.6961275730     -7.1696006006
 H     12.1091628560     -1.3959024858     -6.5237636586
 H     13.2931903233      0.0756355217     -6.8295549719
 H     12.1482860091     -0.3100553743     -8.0777964230
4
# ORCA AIMD Position Step 9, t=4.50 fs, E_Pot=-39.82069617 Hartree, Unit is Angstrom
 C     12.6354692891     -0.7046807337     -7.1675570207
 H     12.0907852646     -1.3763634575     -6.5363976097
 H     13.3117009508      0.0569564378     -6.8323209695
 H     12.1575268833     -0.2980396218     -8.0758081250
4
# ORCA AIMD Position Step 10, t=5.00 fs, E_Pot=-39.81991419 Hartree, Unit is Angstrom
 C     12.6383446663     -0.7129417835     -7.1657960128
 H     12.0726235357     -1.3574135530     -6.5483481745
 H     13.3314713553      0.0377282907     -6.8331412952
 H     12.1666642727     -0.2881136446     -8.0731114488
4
# ORCA AIMD Position Step 11, t=5.50 fs, E_Pot=-39.81915840 Hartree, Unit is Angstrom
 C     12.6411490102     -0.7208189610     -7.1643981665
 H     12.0540541181     -1.3398623102     -6.5587637979
 H     13.3523770489      0.0177430794     -6.8320223895
 H     12.1757909944     -0.2803514456     -8.0695918555
4
# ORCA AIMD Position Step 12, t=6.00 fs, E_Pot=-39.81865402 Hartree, Unit is Angstrom
 C     12.6439400012     -0.7282384787     -7.1634184941
 H     12.0345299119     -1.3243285746     -6.5669474745
 H     13.3742098979     -0.0032509663     -6.8290278714
 H     12.1849738921     -0.2747601683     -8.0652277806
4
# ORCA AIMD Position Step 13, t=6.50 fs, E_Pot=-39.81855492 Hartree, Unit is Angstrom
 C     12.6467665036     -0.7351548408     -7.1628784628
 H     12.0137019413     -1.3111502166     -6.5724574594
 H     13.3966974568     -0.0255216057     -6.8242678445
 H     12.1942507754     -0.2712752759     -8.0600956022
4
# ORCA AIMD Position Step 14, t=7.00 fs, E_Pot=-39.81885916 Hartree, Unit is Angstrom
 C     12.6496591091     -0.7415560195     -7.1627617488
 H     11.9915170899     -1.3003491139     -6.5751675134
 H     13.4195192672     -0.0493263937     -6.8178880429
 H     12.2036294225     -0.2697600213     -8.0543707749
4
# ORCA AIMD Position Step 15, t=7.50 fs, E_Pot=-39.81940571 Hartree, Unit is Angstrom
 C     12.6526239708     -0.7474638883     -7.1630159462
 H     11.9682559852     -1.2916477470     -6.5752667594
 H     13.4423422954     -0.0748883511     -6.8100615846
 H     12.2130880049     -0.2700077527     -8.0483157745
4
# ORCA AIMD Position Step 16, t=8.00 fs, E_Pot=-39.81995929 Hartree, Unit is Angstrom
 C     12.6556447706     -0.7529270258     -7.1635590138
 H     11.9444998764     -1.2845577102     -6.5732005912
 H     13.4648267683     -0.1023838550     -6.8009808332
 H     12.2225789230     -0.2717510120     -8.0422704614
4
# ORCA AIMD Position Step 17, t=8.50 fs, E_Pot=-39.82032366 Hartree, Unit is Angstrom
 C     12.6586885076     -0.7580117087     -7.1642898956
 H     11.9210329659     -1.2784859651     -6.5695723083
 H     13.4866482692     -0.1319315038     -6.7908516121
 H     12.2320353600     -0.2746735920     -8.0366297041
4
# ORCA AIMD Position Step 18, t=9.00 fs, E_Pot=-39.82041773 Hartree, Unit is Angstrom
 C     12.6617133966     -0.7627923267     -7.1650997616
 H     11.8987247340     -1.2728348640     -6.5650427329
 H     13.5075103563     -0.1635882957     -6.7798880845
 H     12.2413822319     -0.2784286653     -8.0318150325
4
# ORCA AIMD Position Step 19, t=9.50 fs, E_Pot=-39.82028751 Hartree, Unit is Angstrom
 C     12.6646758016     -0.7673433848     -7.1658822675
 H     11.8784216935     -1.2670744428     -6.5602485752
 H     13.5271550269     -0.1973496957     -6.7683081685
 H     12.2505514190     -0.2826620926     -8.0282387267
4
# ORCA AIMD Position Step 20, t=10.00 fs, E_Pot=-39.82006786 Hartree, Unit is Angstrom
 C     12.6675347448     -0.7717336274     -7.1665418982
 H     11.8608671506     -1.2607828025     -6.5557484568
 H     13.5453710159     -0.2331526731     -6.7563291868
 H     12.2595000299     -0.2870394535     -8.0262627428
4
# ORCA AIMD Position Step 21, t=10.50 fs, E_Pot=-39.81992315 Hartree, Unit is Angstrom
 C     12.6702539629     -0.7760220486     -7.1670002412
 H     11.8466517696     -1.2536608184     -6.5519939764
 H     13.5620001664     -0.2708809438     -6.7441637044
 H     12.2682289879     -0.2912738954     -8.0261569790
4
# ORCA AIMD Position Step 22, t=11.00 fs, E_Pot=-39.81999128 Hartree, Unit is Angstrom
 C     12.6728023905     -0.7802553537     -7.1672002797
 H     11.8361882239     -1.2455307977     -6.5493180796
 H     13.5769418874     -0.3103719567     -6.7320157027
 H     12.2767980954     -0.2951505979     -8.0280634583
4
# ORCA AIMD Position Step 23, t=11.50 fs, E_Pot=-39.82034508 Hartree, Unit is Angstrom
 C     12.6751542185     -0.7844665636     -7.1671087681
 H     11.8297002962     -1.2363275002     -6.5479326353
 H     13.5901555125     -0.3514253958     -6.7200773983
 H     12.2853336004     -0.2985433595     -8.0319735510
4
# ORCA AIMD Position Step 24, t=12.00 fs, E_Pot=-39.82097594 Hartree, Unit is Angstrom
 C     12.6772894577     -0.7886746139     -7.1667166974
 H     11.8272186025     -1.2260868190     -6.5479293462
 H     13.6016599182     -0.3938131772     -6.7085272109
 H     12.2940256399     -0.3014200349     -8.0377235808
4
# ORCA AIMD Position Step 25, t=12.50 fs, E_Pot=-39.82179840 Hartree, Unit is Angstrom
 C     12.6791955524     -0.7928847154     -7.1660386765
 H     11.8285772515     -1.2149391665     -6.5492800993
 H     13.6115277191     -0.4372858455     -6.6975266032
 H     12.3031176080     -0.3038379427     -8.0450051686
4
# ORCA AIMD Position Step 26, t=13.00 fs, E_Pot=-39.82267071 Hartree, Unit is Angstrom
 C     12.6808700070     -0.7970897725     -7.1651091582
 H     11.8334094892     -1.2030923122     -6.5518356985
 H     13.6198829259     -0.4815926028     -6.6872257127
 H     12.3128812394     -0.3059239927     -8.0534060975
4
# ORCA AIMD Position Step 27, t=13.50 fs, E_Pot=-39.82342514 Hartree, Unit is Angstrom
 C     12.6823238327     -0.8012719858     -7.1639803662
 H     11.8411396137     -1.1908317022     -6.5553213665
 H     13.6268898471     -0.5264819157     -6.6777588032
 H     12.3235948683     -0.3078548708     -8.0624442949
4
# ORCA AIMD Position Step 28, t=14.00 fs, E_Pot=-39.82390695 Hartree, Unit is Angstrom
 C     12.6835844172     -0.8054051492     -7.1627176953
 H     11.8509877581     -1.1785052492     -6.5593389270
 H     13.6327401174     -0.5717150474     -6.6692492977
 H     12.3355179859     -0.3098317530     -8.0716155568
4
# ORCA AIMD Position Step 29, t=14.50 fs, E_Pot=-39.82401842 Hartree, Unit is Angstrom
 C     12.6846971144     -0.8094573857     -7.1613951776
 H     11.8619873910     -1.1665064763     -6.5633766685
 H     13.6376376647     -0.6170733322     -6.6618124478
 H     12.3488705509     -0.3120576285     -8.0804350161
4
# ORCA AIMD Position Step 30, t=15.00 fs, E_Pot=-39.82376170 Hartree, Unit is Angstrom
 C     12.6857241249     -0.8133946067     -7.1600899893
 H     11.8730301572     -1.1552475949     -6.5668367942
 H     13.6417831515     -0.6623633753     -6.6555579493
 H     12.3638176114     -0.3147179843     -8.0884723744
4
# ORCA AIMD Position Step 31, t=15.50 fs, E_Pot=-39.82326225 Hartree, Unit is Angstrom
 C     12.6867396360     -0.8171848410     -7.1588755507
 H     11.8829482026     -1.1451205163     -6.5690882526
 H     13.6453592315     -0.7074196772     -6.6505916792
 H     12.3804598307     -0.3179656018     -8.0953793116
4
# ORCA AIMD Position Step 32, t=16.00 fs, E_Pot=-39.82274732 Hartree, Unit is Angstrom
 C     12.6878209790     -0.8208033172     -7.1578130203
 H     11.8906359544     -1.1364475249     -6.5695475800
 H     13.6485179539     -0.7521047250     -6.6470160156
 H     12.3988294394     -0.3219092078     -8.1009094355
4
# ORCA AIMD Position Step 33, t=16.50 fs, E_Pot=-39.82246588 Hartree, Unit is Angstrom
 C     12.6890370163     -0.8242376524     -7.1569418779
 H     11.8951968579     -1.1294295229     -6.5677789502
 H     13.6513713768     -0.7963069196     -6.6449284786
 H     12.4188907442     -0.3266054796     -8.1049316808
4
# ORCA AIMD Position Step 34, t=17.00 fs, E_Pot=-39.82257535 Hartree, Unit is Angstrom
 C     12.6904366311     -0.8274919616     -7.1562714971
 H     11.8960812382     -1.1241056151     -6.5635901398
 H     13.6539860216     -0.8399369583     -6.6444188256
 H     12.4405443444     -0.3320541739     -8.1074376692
4
# ORCA AIMD Position Step 35, t=17.50 fs, E_Pot=-39.82305987 Hartree, Unit is Angstrom
 C     12.6920410313     -0.8305885165     -7.1557763955
 H     11.8931715711     -1.1203384866     -6.5570923632
 H     13.6563815562     -0.8829240763     -6.6455651393
 H     12.4636344616     -0.3381968577     -8.1085424889
4
# ORCA AIMD Position Step 36, t=18.00 fs, E_Pot=-39.82373807 Hartree, Unit is Angstrom
 C     12.6938423418     -0.8335669221     -7.1553970801
 H     11.8867867024     -1.1178363343     -6.5487032685
 H     13.6585346210     -0.9252049723     -6.6484244456
 H     12.4879575935     -0.3449159856     -8.1084810704
4
# ORCA AIMD Position Step 37, t=18.50 fs, E_Pot=-39.82435774 Hartree, Unit is Angstrom
 C     12.6958090932     -0.8364786529     -7.1550474029
 H     11.8775962910     -1.1161943747     -6.5390788928
 H     13.6603853968     -0.9667342671     -6.6530340151
 H     12.5132763778     -0.3520480862     -8.1075873368
4
# ORCA AIMD Position Step 38, t=19.00 fs, E_Pot=-39.82471450 Hartree, Unit is Angstrom
 C     12.6978947296     -0.8393823401     -7.1546250546
 H     11.8664988002     -1.1149571874     -6.5290238577
 H     13.6618446969     -1.0074690110     -6.6594027907
 H     12.5393336658     -0.3593929804     -8.1062675689
4
# ORCA AIMD Position Step 39, t=19.50 fs, E_Pot=-39.82472874 Hartree, Unit is Angstrom
 C     12.7000474196     -0.8423370666     -7.1540247363
 H     11.8544773556     -1.1136735940     -6.5193796333
 H     13.6628072463     -1.0473729209     -6.6675073793
 H     12.5658670500     -0.3667343320     -8.1049592523
4
# ORCA AIMD Position Step 40, t=20.00 fs, E_Pot=-39.82445386 Hartree, Unit is Angstrom
 C     12.7022176949     -0.8453968452     -7.1531502778
 H     11.8424833475     -1.1119383092     -6.5109352708
 H     13.6631639250     -1.0864163623     -6.6772884387
 H     12.5926224766     -0.3738635222     -8.1040796237
4
# ORCA AIMD Position Step 41, t=20.50 fs, E_Pot=-39.82403172 Hartree, Unit is Angstrom
 C     12.7043634097     -0.8486062164     -7.1519246633
 H     11.8313560744     -1.1094166911     -6.5043661373
 H     13.6628131417     -1.1245779242     -6.6886489860
 H     12.6193642869     -0.3806054877     -8.1039691889
4
# ORCA AIMD Position Step 42, t=21.00 fs, E_Pot=-39.82362738 Hartree, Unit is Angstrom
 C     12.7064524699     -0.8519972281     -7.1502972062
 H     11.8217764317     -1.1058553403     -6.5001996762
 H     13.6616700285     -1.1618467012     -6.7014548868
 H     12.6458796866     -0.3868416418     -8.1048399425
4
# ORCA AIMD Position Step 43, t=21.50 fs, E_Pot=-39.82337175 Hartree, Unit is Angstrom
 C     12.7084642783     -0.8555878961     -7.1482475440
 H     11.8142448179     -1.1010832155     -6.4988008651
 H     13.6596724813     -1.1982246517     -6.7155376850
 H     12.6719771399     -0.3925247319     -8.1067393026
4
# ORCA AIMD Position Step 44, t=22.00 fs, E_Pot=-39.82332765 Hartree, Unit is Angstrom
 C     12.7103907305     -0.8593821599     -7.1457864248
 H     11.8090724807     -1.0950075562     -6.5003691591
 H     13.6567835352     -1.2337283736     -6.7306995885
 H     12.6974801799     -0.3976818507     -8.1095385566
4
# ORCA AIMD Position Step 45, t=22.50 fs, E_Pot=-39.82348250 Hartree, Unit is Angstrom
 C     12.7122372099     -0.8633711941     -7.1429535932
 H     11.8063780859     -1.0876074904     -6.5049406701
 H     13.6529900690     -1.2683897960     -6.7467201697
 H     12.7222197184     -0.4024047618     -8.1129488632
4
# ORCA AIMD Position Step 46, t=23.00 fs, E_Pot=-39.82376126 Hartree, Unit is Angstrom
 C     12.7140236397     -0.8675357701     -7.1398134580
 H     11.8060852437     -1.0789266168     -6.5123924185
 H     13.6482982384     -1.3022555075     -6.7633641766
 H     12.7460282116     -0.4068300971     -8.1165606034
4
# ORCA AIMD Position Step 47, t=23.50 fs, E_Pot=-39.82405095 Hartree, Unit is Angstrom
 C     12.7157854983     -0.8718491693     -7.1364502681
 H     11.8079188679     -1.0690669828     -6.5224481361
 H     13.6427279051     -1.3353795400     -6.7803859090
 H     12.7687368610     -0.4111179998     -8.1198906534
4
# ORCA AIMD Position Step 48, t=24.00 fs, E_Pot=-39.82422978 Hartree, Unit is Angstrom
 C     12.7175741200     -0.8762805130     -7.1329602463
 H     11.8114077990     -1.0581747886     -6.5346865963
 H     13.6363016618     -1.3678317288     -6.7975448187
 H     12.7901808149     -0.4154183599     -8.1224523617
4
# ORCA AIMD Position Step 49, t=24.50 fs, E_Pot=-39.82419996 Hartree, Unit is Angstrom
 C     12.7194563161     -0.8807976721     -7.1294473661
 H     11.8158863336     -1.0464348188     -6.5485540893
 H     13.6290432112     -1.3996831993     -6.8146021539
 H     12.8102043932     -0.4198560954     -8.1237971375
4
# ORCA AIMD Position Step 50, t=25.00 fs, E_Pot=-39.82392250 Hartree, Unit is Angstrom
 C     12.7215116253     -0.8853703778     -7.1260162400
 H     11.8205262364     -1.0340519375     -6.5633958992
 H     13.6209686102     -1.4310065317     -6.8313299693
 H     12.8286710925     -0.4245123067     -8.1235591347
4
# ORCA AIMD Position Step 51, t=25.50 fs, E_Pot=-39.82344466 Hartree, Unit is Angstrom
 C     12.7238268511     -0.8899730446     -7.1227653574
 H     11.8243956864     -1.0212316203     -6.5785043856
 H     13.6120826407     -1.4618718606     -6.8475145078
 H     12.8454735506     -0.4294140113     -8.1214847047
4
# ORCA AIMD Position Step 52, t=26.00 fs, E_Pot=-39.82290196 Hartree, Unit is Angstrom
 C     12.7264871619     -0.8945872952     -7.1197795385
 H     11.8265566580     -1.0081583117     -6.5931872678
 H     13.6023778381     -1.4923440392     -6.8629588427
 H     12.8605429804     -0.4345287100     -8.1174515276
4
# ORCA AIMD Position Step 53, t=26.50 fs, E_Pot=-39.82247691 Hartree, Unit is Angstrom
 C     12.7295642135     -0.8992038709     -7.1171220227
 H     11.8261966380     -0.9949763159     -6.6068494502
 H     13.5918359903     -1.5224807222     -6.8774851476
 H     12.8738570497     -0.4397629292     -8.1114787172
4
# ORCA AIMD Position Step 54, t=27.00 fs, E_Pot=-39.82231880 Hartree, Unit is Angstrom
 C     12.7331033388     -0.9038234631     -7.1148274957
 H     11.8227721003     -0.9817796157     -6.6190714769
 H     13.5804313227     -1.5523310481     -6.8909370731
 H     12.8854454479     -0.4449640296     -8.1037289394
4
# ORCA AIMD Position Step 55, t=27.50 fs, E_Pot=-39.82246386 Hartree, Unit is Angstrom
 C     12.7371132565     -0.9084561036     -7.1128979854
 H     11.8161245929     -0.9686155379     -6.6296616287
 H     13.5681341821     -1.5819343894     -6.9031825034
 H     12.8953924446     -0.4499251797     -8.0945022942
4
# ORCA AIMD Position Step 56, t=28.00 fs, E_Pot=-39.82280988 Hartree, Unit is Angstrom
 C     12.7415618556     -0.9131191315     -7.1113032864
 H     11.8065286466     -0.9555019826     -6.6386631299
 H     13.5549142002     -1.6113187800     -6.9141167615
 H     12.9038359587     -0.4543939240     -8.0842206825
4
# ORCA AIMD Position Step 57, t=28.50 fs, E_Pot=-39.82316838 Hartree, Unit is Angstrom
 C     12.7463790592     -0.9178346334     -7.1099856039
 H     11.7946560685     -0.9424517662     -6.6463170530
 H     13.5407460963     -1.6404944312     -6.9236631128
 H     12.9109634293     -0.4580847631     -8.0734089327
4
# ORCA AIMD Position Step 58, t=29.00 fs, E_Pot=-39.82336191 Hartree, Unit is Angstrom
 C     12.7514682076     -0.9226254541     -7.1088700886
 H     11.7814583917     -0.9294939684     -6.6529856928
 H     13.5256022956     -1.6694594105     -6.9317820370
 H     12.9170013817     -0.4606996018     -8.0626365257
4
# ORCA AIMD Position Step 59, t=29.50 fs, E_Pot=-39.82330528 Hartree, Unit is Angstrom
 C     12.7567178008     -0.9275131654     -7.1078744076
 H     11.7680324806     -0.9166870469     -6.6590813780
 H     13.5094598858     -1.6981854866     -6.9384665291
 H     12.9222033487     -0.4619528762     -8.0524793622
4
# ORCA AIMD Position Step 60, t=30.00 fs, E_Pot=-39.82303062 Hartree, Unit is Angstrom
 C     12.7620151165     -0.9325152118     -7.1069202168
 H     11.7554755075     -0.9041204054     -6.6649964143
 H     13.4922992823     -1.7266188211     -6.9437448661
 H     12.9268343808     -0.4616031365     -8.0434503516
4
# ORCA AIMD Position Step 61, t=30.50 fs, E_Pot=-39.82265464 Hartree, Unit is Angstrom
 C     12.7672565000     -0.9376427801     -7.1059424858
 H     11.7447763805     -0.8919075224     -6.6710580681
 H     13.4741065019     -1.7546781651     -6.9476791618
 H     12.9311550836     -0.4594868477     -8.0359347991
4
# ORCA AIMD Position Step 62, t=31.00 fs, E_Pot=-39.82231675 Hartree, Unit is Angstrom
 C     12.7723541051     -0.9428990890     -7.1048962540
 H     11.7367462798     -0.8801746522     -6.6775049260
 H     13.4548764923     -1.7822557015     -6.9503624442
 H     12.9354074577     -0.4555489288     -8.0301365366
4
# ORCA AIMD Position Step 63, t=31.50 fs, E_Pot=-39.82212193 Hartree, Unit is Angstrom
 C     12.7772393681     -0.9482783788     -7.1037601593
 H     11.7319826719     -0.8690484504     -6.6844792239
 H     13.4346174281     -1.8092208010     -6.9519143931
 H     12.9398049030     -0.4498631703     -8.0260478679
4
# ORCA AIMD Position Step 64, t=32.00 fs, E_Pot=-39.82210992 Hartree, Unit is Angstrom
 C     12.7818641195     -0.9537659262     -7.1025364967
 H     11.7308565358     -0.8586442098     -6.6920286507
 H     13.4133531715     -1.8354280640     -6.9524781549
 H     12.9445288027     -0.4426356532     -8.0234503093
4
# ORCA AIMD Position Step 65, t=32.50 fs, E_Pot=-39.82225467 Hartree, Unit is Angstrom
 C     12.7862001339     -0.9593393262     -7.1012485110
 H     11.7335097103     -0.8490557859     -6.7001126170
 H     13.3911323144     -1.8607223076     -6.9522102230
 H     12.9497270486     -0.4341946294     -8.0219507325
4
# ORCA AIMD Position Step 66, t=33.00 fs, E_Pot=-39.82248359 Hartree, Unit is Angstrom
 C     12.7902381161     -0.9649708212     -7.0999353904
 H     11.7398598183     -0.8403462766     -6.7086098046
 H     13.3680293247     -1.8849498506     -6.9512766946
 H     12.9555198046     -0.4249610036     -8.0210372489
4
# ORCA AIMD Position Step 67, t=33.50 fs, E_Pot=-39.82270249 Hartree, Unit is Angstrom
 C     12.7939865613     -0.9706303278     -7.0986465658
 H     11.7496056439     -0.8325396974     -6.7173253856
 H     13.3441462971     -1.9079681825     -6.9498477248
 H     12.9620059278     -0.4154111729     -8.0201454736
4
# ORCA AIMD Position Step 68, t=34.00 fs, E_Pot=-39.82281749 Hartree, Unit is Angstrom
 C     12.7974706331     -0.9762886241     -7.0974362660
 H     11.7622343454     -0.8256134786     -6.7259981171
 H     13.3196128781     -1.9296549123     -6.9480925300
 H     12.9692693836     -0.4060378268     -8.0187213271
4
# ORCA AIMD Position Step 69, t=34.50 fs, E_Pot=-39.82275367 Hartree, Unit is Angstrom
 C     12.8007312454     -0.9819201404     -7.0963594922
 H     11.7770292458     -0.8194919946     -6.7343074923
 H     13.2945873144     -1.9499121593     -6.9461710307
 H     12.9773815748     -0.3973188903     -8.0162702138
4
# ORCA AIMD Position Step 70, t=35.00 fs, E_Pot=-39.82247302 Hartree, Unit is Angstrom
 C     12.8038218933     -0.9875053387     -7.0954668991
 H     11.7931064179     -0.8140436516     -6.7418876788
 H     13.2692459564     -1.9686819633     -6.9442406248
 H     12.9864131931     -0.3896767347     -8.0123973067
4
# ORCA AIMD Position Step 71, t=35.50 fs, E_Pot=-39.82199312 Hartree, Unit is Angstrom
 C     12.8068059181     -0.9930317881     -7.0948029833
 H     11.8094480520     -0.8090814363     -6.7483428307
 H     13.2437873994     -1.9859445742     -6.9424424572
 H     12.9964293132     -0.3834665711     -8.0068275677
4
# ORCA AIMD Position Step 72, t=36.00 fs, E_Pot=-39.82139852 Hartree, Unit is Angstrom
 C     12.8097499605     -0.9984945261     -7.0944026265
 H     11.8249845848     -0.8043730771     -6.7532749534
 H     13.2184230158     -2.0017231681     -6.9409035549
 H     13.0074946455     -0.3789573327     -7.9994169010
4
# ORCA AIMD Position Step 73, t=36.50 fs, E_Pot=-39.82083067 Hartree, Unit is Angstrom
 C     12.8127154208     -1.0038952471     -7.0942880279
 H     11.8387011804     -0.7996607327     -6.7563197529
 H     13.1933702597     -2.0160835615     -6.9397353588
 H     13.0196753400     -0.3763220514     -7.9901542680
4
# ORCA AIMD Position Step 74, t=37.00 fs, E_Pot=-39.82044626 Hartree, Unit is Angstrom
 C     12.8157482547     -1.0092405606     -7.0944654645
 H     11.8497645522     -0.7946905179     -6.7571890451
 H     13.1688453848     -2.0291314320     -6.9390331340
 H     13.0330409304     -0.3756319574     -7.9791583860
4
# ORCA AIMD Position Step 75, t=37.50 fs, E_Pot=-39.82035330 Hartree, Unit is Angstrom
 C     12.8188691738     -1.0145397303     -7.0949224328
 H     11.8576451706     -0.7892475467     -6.7557125715
 H     13.1450560310     -2.0410065510     -6.9388760078
 H     13.0476662771     -0.3768541374     -7.9666698355
4
# ORCA AIMD Position Step 76, t=38.00 fs, E_Pot=-39.82055748 Hartree, Unit is Angstrom
 C     12.8220670486     -1.0198025299     -7.0956260869
 H     11.8622013834     -0.7831881965     -6.7518689856
 H     13.1221941255     -2.0518740547     -6.9393275325
 H     13.0636332143     -0.3798534045     -7.9530380217
4
# ORCA AIMD Position Step 77, t=38.50 fs, E_Pot=-39.82095549 Hartree, Unit is Angstrom
 C     12.8252978521     -1.0250378169     -7.0965239268
 H     11.8636977862     -0.7764601922     -6.7457965342
 H     13.1004294908     -2.0619133202     -6.9404367759
 H     13.0810312889     -0.3844000613     -7.9387010929
4
# ORCA AIMD Position Step 78, t=39.00 fs, E_Pot=-39.82138495 Hartree, Unit is Angstrom
 C     12.8284897613     -1.0302530340     -7.0975472582
 H     11.8627510407     -0.7691045276     -6.7377794676
 H     13.0799046291     -2.0713059589     -6.9422398283
 H     13.0999565310     -0.3901856176     -7.9241567364
4
# ORCA AIMD Position Step 79, t=39.50 fs, E_Pot=-39.82170272 Hartree, Unit is Angstrom
 C     12.8315525496     -1.0354541776     -7.0986167640
 H     11.8602247266     -0.7612418068     -6.7282174284
 H     13.0607341601     -2.0802251801     -6.9447582777
 H     13.1205054111     -0.3968472467     -7.9099279019
4
# ORCA AIMD Position Step 80, t=40.00 fs, E_Pot=-39.82184680 Hartree, Unit is Angstrom
 C     12.8343897956     -1.0406458387     -7.0996511706
 H     11.8570986568     -0.7530439558     -6.7175763237
 H     13.0429985885     -2.0888206809     -6.9480067407
 H     13.1427664384     -0.4040106345     -7.8965012106
4
# ORCA AIMD Position Step 81, t=40.50 fs, E_Pot=-39.82185089 Hartree, Unit is Angstrom
 C     12.8369105175     -1.0458304199     -7.1005755975
 H     11.8543460320     -0.7447035010     -6.7063410790
 H     13.0267444478     -2.0972179103     -6.9519930243
 H     13.1668043412     -0.4113308744     -7.8842746988
4
# ORCA AIMD Position Step 82, t=41.00 fs, E_Pot=-39.82181410 Hartree, Unit is Angstrom
 C     12.8390374632     -1.0510063290     -7.1013286627
 H     11.8528532109     -0.7364132116     -6.6949848696
 H     13.0119919012     -2.1055065538     -6.9567148044
 H     13.1926339409     -0.4185460239     -7.8735074637
4
# ORCA AIMD Position Step 83, t=41.50 fs, E_Pot=-39.82184742 Hartree, Unit is Angstrom
 C     12.8407143595     -1.0561664915     -7.1018687796
 H     11.8533568487     -0.7283441855     -6.6839353725
 H     12.9987343538     -2.1137406718     -6.9621630265
 H     13.2201969412     -0.4255167796     -7.8642752085
4
# ORCA AIMD Position Step 84, t=42.00 fs, E_Pot=-39.82202665 Hartree, Unit is Angstrom
 C     12.8419099881     -1.0612975793     -7.1021771495
 H     11.8564130357     -0.7206327849     -6.6735544915
 H     12.9869417180     -2.1219398751     -6.9683218917
 H     13.2493407735     -0.4322476537     -7.8564550928
4
# ORCA AIMD Position Step 85, t=42.50 fs, E_Pot=-39.82237039 Hartree, Unit is Angstrom
 C     12.8426198894     -1.0663808448     -7.1022577008
 H     11.8623846029     -0.7133719544     -6.6641248393
 H     12.9765633812     -2.1300921139     -6.9751686432
 H     13.2798077688     -0.4388829800     -7.8497403135
4
# ORCA AIMD Position Step 86, t=43.00 fs, E_Pot=-39.82284486 Hartree, Unit is Angstrom
 C     12.8428660116     -1.0713946689     -7.1021344068
 H     11.8714386961     -0.7066050079     -6.6558406524
 H     12.9675306976     -2.1381577761     -6.9826730488
 H     13.3112390188     -0.4456786624     -7.8436816328
4
# ORCA AIMD Position Step 87, t=43.50 fs, E_Pot=-39.82338404 Hartree, Unit is Angstrom
 C     12.8426947643     -1.0763183059     -7.1018470111
 H     11.8835491514     -0.7003203244     -6.6488011368
 H     12.9597588475     -2.1460747900     -6.9907966766
 H     13.3431931717     -0.4529576864     -7.8377454947
4
# ORCA AIMD Position Step 88, t=44.00 fs, E_Pot=-39.82391111 Hartree, Unit is Angstrom
 C     12.8421739993     -1.0811359644     -7.1014463299
 H     11.8985012726     -0.6944462176     -6.6430052100
 H     12.9531480694     -2.1537646451     -6.9994920516
 H     13.3751764525     -0.4610604978     -7.8313757771
4
# ORCA AIMD Position Step 89, t=44.50 fs, E_Pot=-39.82435438 Hartree, Unit is Angstrom
 C     12.8413893170     -1.0858403618     -7.1009898562
 H     11.9158995383     -0.6888467873     -6.6383491371
 H     12.9475854781     -2.1611390747     -7.0087006116
 H     13.4066774096     -0.4702999703     -7.8240502617
4
# ORCA AIMD Position Step 90, t=45.00 fs, E_Pot=-39.82465922 Hartree, Unit is Angstrom
 C     12.8404405997     -1.0904349586     -7.1005389865
 H     11.9351788765     -0.6833181934     -6.6346244506
 H     12.9429441954     -2.1681066877     -7.0183525676
 H     13.4371981650     -0.4809317658     -7.8153156788
4
# ORCA AIMD Position Step 91, t=45.50 fs, E_Pot=-39.82479947 Hartree, Unit is Angstrom
 C     12.8394353011     -1.0949354504     -7.1001552382
 H     11.9556414693     -0.6775928255     -6.6315249958
 H     12.9390824553     -2.1745843393     -7.0283703537
 H     13.4662987435     -0.4931209467     -7.8048222389
4
# ORCA AIMD Position Step 92, t=46.00 fs, E_Pot=-39.82479075 Hartree, Unit is Angstrom
 C     12.8384844110     -1.0993684746     -7.0998983596
 H     11.9764880169     -0.6713488709     -6.6286634995
 H     12.9358466793     -2.1805056132     -7.0386629308
 H     13.4936108632     -0.5069393105     -7.7923354154
4
# ORCA AIMD Position Step 93, t=46.50 fs, E_Pot=-39.82469717 Hartree, Unit is Angstrom
 C     12.8376940022     -1.1037692529     -7.0998227382
 H     11.9968920814     -0.6642367573     -6.6256045448
 H     12.9330715968     -2.1858295304     -7.0491292229
 H     13.5188640354     -0.5223583893     -7.7777425929
4
# ORCA AIMD Position Step 94, t=47.00 fs, E_Pot=-39.82461923 Hartree, Unit is Angstrom
 C     12.8371561768     -1.1081772849     -7.0999732304
 H     12.0160893414     -0.6559206969     -6.6219134565