Job execution start: Mon Oct 24 23:43:23 CEST 2022
Shared library path: /home/cs681498/orca:/opt/MPI/openmpi-4.1.1/linux/gcc_4.8.5/lib:/opt/MPI/openmpi-4.1.1/linux/gcc_4.8.5/lib/lib32
Slurm Job ID is: 30556537
Slurm Job name is: 17194
ncm0591

                                 *****************
                                 * O   R   C   A *
                                 *****************

                                            #,                                       
                                            ###                                      
                                            ####                                     
                                            #####                                    
                                            ######                                   
                                           ########,                                 
                                     ,,################,,,,,                         
                               ,,#################################,,                 
                          ,,##########################################,,             
                       ,#########################################, ''#####,          
                    ,#############################################,,   '####,        
                  ,##################################################,,,,####,       
                ,###########''''           ''''###############################       
              ,#####''   ,,,,##########,,,,          '''####'''          '####       
            ,##' ,,,,###########################,,,                        '##       
           ' ,,###''''                  '''############,,,                           
         ,,##''                                '''############,,,,        ,,,,,,###''
      ,#''                                            '''#######################'''  
     '                                                          ''''####''''         
             ,#######,   #######,   ,#######,      ##                                
            ,#'     '#,  ##    ##  ,#'     '#,    #''#        ######   ,####,        
            ##       ##  ##   ,#'  ##            #'  '#       #        #'  '#        
            ##       ##  #######   ##           ,######,      #####,   #    #        
            '#,     ,#'  ##    ##  '#,     ,#' ,#      #,         ##   #,  ,#        
             '#######'   ##     ##  '#######'  #'      '#     #####' # '####'        



                  #######################################################
                  #                        -***-                        #
                  #          Department of theory and spectroscopy      #
                  #    Directorship and core code : Frank Neese         #
                  #        Max Planck Institute fuer Kohlenforschung    #
                  #                Kaiser Wilhelm Platz 1               #
                  #                 D-45470 Muelheim/Ruhr               #
                  #                      Germany                        #
                  #                                                     #
                  #                  All rights reserved                #
                  #                        -***-                        #
                  #######################################################


                         Program Version 5.0.3 -  RELEASE  -


 With contributions from (in alphabetic order):
   Daniel Aravena         : Magnetic Suceptibility
   Michael Atanasov       : Ab Initio Ligand Field Theory (pilot matlab implementation)
   Alexander A. Auer      : GIAO ZORA, VPT2 properties, NMR spectrum
   Ute Becker             : Parallelization
   Giovanni Bistoni       : ED, misc. LED, open-shell LED, HFLD
   Martin Brehm           : Molecular dynamics
   Dmytro Bykov           : SCF Hessian
   Vijay G. Chilkuri      : MRCI spin determinant printing, contributions to CSF-ICE
   Dipayan Datta          : RHF DLPNO-CCSD density
   Achintya Kumar Dutta   : EOM-CC, STEOM-CC
   Dmitry Ganyushin       : Spin-Orbit,Spin-Spin,Magnetic field MRCI
   Miquel Garcia          : C-PCM and meta-GGA Hessian, CC/C-PCM, Gaussian charge scheme
   Yang Guo               : DLPNO-NEVPT2, F12-NEVPT2, CIM, IAO-localization
   Andreas Hansen         : Spin unrestricted coupled pair/coupled cluster methods
   Benjamin Helmich-Paris : MC-RPA, TRAH-SCF, COSX integrals
   Lee Huntington         : MR-EOM, pCC
   Robert Izsak           : Overlap fitted RIJCOSX, COSX-SCS-MP3, EOM
   Marcus Kettner         : VPT2
   Christian Kollmar      : KDIIS, OOCD, Brueckner-CCSD(T), CCSD density, CASPT2, CASPT2-K
   Simone Kossmann        : Meta GGA functionals, TD-DFT gradient, OOMP2, MP2 Hessian
   Martin Krupicka        : Initial AUTO-CI
   Lucas Lang             : DCDCAS
   Marvin Lechner         : AUTO-CI (C++ implementation), FIC-MRCC
   Dagmar Lenk            : GEPOL surface, SMD
   Dimitrios Liakos       : Extrapolation schemes; Compound Job, initial MDCI parallelization
   Dimitrios Manganas     : Further ROCIS development; embedding schemes
   Dimitrios Pantazis     : SARC Basis sets
   Anastasios Papadopoulos: AUTO-CI, single reference methods and gradients
   Taras Petrenko         : DFT Hessian,TD-DFT gradient, ASA, ECA, R-Raman, ABS, FL, XAS/XES, NRVS
   Peter Pinski           : DLPNO-MP2, DLPNO-MP2 Gradient
   Christoph Reimann      : Effective Core Potentials
   Marius Retegan         : Local ZFS, SOC
   Christoph Riplinger    : Optimizer, TS searches, QM/MM, DLPNO-CCSD(T), (RO)-DLPNO pert. Triples
   Tobias Risthaus        : Range-separated hybrids, TD-DFT gradient, RPA, STAB
   Michael Roemelt        : Original ROCIS implementation
   Masaaki Saitow         : Open-shell DLPNO-CCSD energy and density
   Barbara Sandhoefer     : DKH picture change effects
   Avijit Sen             : IP-ROCIS
   Kantharuban Sivalingam : CASSCF convergence, NEVPT2, FIC-MRCI
   Bernardo de Souza      : ESD, SOC TD-DFT
   Georgi Stoychev        : AutoAux, RI-MP2 NMR, DLPNO-MP2 response
   Willem Van den Heuvel  : Paramagnetic NMR
   Boris Wezisla          : Elementary symmetry handling
   Frank Wennmohs         : Technical directorship


 We gratefully acknowledge several colleagues who have allowed us to
 interface, adapt or use parts of their codes:
   Stefan Grimme, W. Hujo, H. Kruse, P. Pracht,  : VdW corrections, initial TS optimization,
                  C. Bannwarth, S. Ehlert          DFT functionals, gCP, sTDA/sTD-DF
   Ed Valeev, F. Pavosevic, A. Kumar             : LibInt (2-el integral package), F12 methods
   Garnet Chan, S. Sharma, J. Yang, R. Olivares  : DMRG
   Ulf Ekstrom                                   : XCFun DFT Library
   Mihaly Kallay                                 : mrcc  (arbitrary order and MRCC methods)
   Jiri Pittner, Ondrej Demel                    : Mk-CCSD
   Frank Weinhold                                : gennbo (NPA and NBO analysis)
   Christopher J. Cramer and Donald G. Truhlar   : smd solvation model
   Lars Goerigk                                  : TD-DFT with DH, B97 family of functionals
   V. Asgeirsson, H. Jonsson                     : NEB implementation
   FAccTs GmbH                                   : IRC, NEB, NEB-TS, DLPNO-Multilevel, CI-OPT
                                                   MM, QMMM, 2- and 3-layer-ONIOM, Crystal-QMMM,
                                                   LR-CPCM, SF, NACMEs, symmetry and pop. for TD-DFT,
                                                   nearIR, NL-DFT gradient (VV10), updates on ESD,
                                                   ML-optimized integration grids
   S Lehtola, MJT Oliveira, MAL Marques          : LibXC Library
   Liviu Ungur et al                             : ANISO software


 Your calculation uses the libint2 library for the computation of 2-el integrals
 For citations please refer to: http://libint.valeyev.net

 Your ORCA version has been built with support for libXC version: 5.1.0
 For citations please refer to: https://tddft.org/programs/libxc/

 This ORCA versions uses:
   CBLAS   interface :  Fast vector & matrix operations
   LAPACKE interface :  Fast linear algebra routines
   SCALAPACK package :  Parallel linear algebra routines
   Shared memory     :  Shared parallel matrices
   BLAS/LAPACK       :  OpenBLAS 0.3.15  USE64BITINT DYNAMIC_ARCH NO_AFFINITY SkylakeX SINGLE_THREADED
        Core in use  :  SkylakeX
   Copyright (c) 2011-2014, The OpenBLAS Project


================================================================================

----- Orbital basis set information -----
Your calculation utilizes the basis: EPR-III
   V. Barone, in Recent Advances in Density Functional Methods, Part 1 (ed. D. P. Chong), World Scientific, Singapore, 1995, p. 287.
   N. Rega, M. Cossi and V. Barone, J. Chem. Phys. 105, 11060 (1996).

----- AuxJ basis set information -----
Your calculation utilizes the AutoAux generation procedure.
  G. L. Stoychev, A. A. Auer, F. Neese, J. Chem. Theory Comput. 13, 554 (2017)

----- AuxC basis set information -----
Your calculation utilizes the AutoAux generation procedure.
  G. L. Stoychev, A. A. Auer, F. Neese, J. Chem. Theory Comput. 13, 554 (2017)

----- AuxJK basis set information -----
Your calculation utilizes the AutoAux generation procedure.
  G. L. Stoychev, A. A. Auer, F. Neese, J. Chem. Theory Comput. 13, 554 (2017)

================================================================================
                                        WARNINGS
                       Please study these warnings very carefully!
================================================================================


WARNING: your system is open-shell and RHF/RKS was chosen
  ===> : WILL SWITCH to UHF/UKS


INFO   : the flag for use of the SHARK integral package has been found!

================================================================================
                                       INPUT FILE
================================================================================
NAME = /home/rwth0701/scratch/cs681498/orcajob__30556537-62XP/17194.inp
|  1> !B3LYP EPR-III Autoaux
|  2> !PAL4
|  3> 
|  4> * xyz 0 2
|  5>  C    -80.2018838727   -106.6263401730    -30.4227232441
|  6>  H    -79.7833287457   -105.6670997228    -30.3188884369
|  7>  H    -81.2517265803   -106.8114008134    -30.4838682036
|  8>  H    -79.5809617150   -107.4525037817    -30.4627154018
|  9> *
| 10> 
| 11> %EPRNMR
| 12>         GTENSOR   TRUE
| 13>         NUCLEI    = ALL H {AISO, ADIP, AORB}
| 14>         NUCLEI    = ALL C {AISO, ADIP, AORB}
| 15> END
| 16> 
| 17> 
| 18>                          ****END OF INPUT****
================================================================================

                       ****************************
                       * Single Point Calculation *
                       ****************************

---------------------------------
CARTESIAN COORDINATES (ANGSTROEM)
---------------------------------
  C    -80.201884  -106.626340  -30.422723
  H    -79.783329  -105.667100  -30.318888
  H    -81.251727  -106.811401  -30.483868
  H    -79.580962  -107.452504  -30.462715

----------------------------
CARTESIAN COORDINATES (A.U.)
----------------------------
  NO LB      ZA    FRAG     MASS         X           Y           Z
   0 C     6.0000    0    12.011  -151.559596  -201.494582  -57.490615
   1 H     1.0000    0     1.008  -150.768641  -199.681880  -57.294396
   2 H     1.0000    0     1.008  -153.543511  -201.844296  -57.606162
   3 H     1.0000    0     1.008  -150.386223  -203.055805  -57.566189

--------------------------------
INTERNAL COORDINATES (ANGSTROEM)
--------------------------------
 C      0   0   0     0.000000000000     0.00000000     0.00000000
 H      1   0   0     1.051718737507     0.00000000     0.00000000
 H      1   2   0     1.067780809623   123.71168708     0.00000000
 H      1   2   3     1.034258191624   119.56773705   180.49451912

---------------------------
INTERNAL COORDINATES (A.U.)
---------------------------
 C      0   0   0     0.000000000000     0.00000000     0.00000000
 H      1   0   0     1.987460383802     0.00000000     0.00000000
 H      1   2   0     2.017813301244   123.71168708     0.00000000
 H      1   2   3     1.954464733933   119.56773705   180.49451912

---------------------
BASIS SET INFORMATION
---------------------
There are 2 groups of distinct atoms

 Group   1 Type C   : 12s8p2d1f contracted to 8s5p2d1f pattern {51111111/41111/11/1}
 Group   2 Type H   : 7s2p contracted to 5s2p pattern {31111/11}

Atom   0C    basis set group =>   1
Atom   1H    basis set group =>   2
Atom   2H    basis set group =>   2
Atom   3H    basis set group =>   2
---------------------------------
AUXILIARY/J BASIS SET INFORMATION
---------------------------------
There are 2 groups of distinct atoms

 Group   1 Type C   : 20s17p16d8f3g contracted to 20s17p16d8f3g pattern {11111111111111111111/11111111111111111/1111111111111111/11111111/111}
 Group   2 Type H   : 17s7p3d contracted to 17s7p3d pattern {11111111111111111/1111111/111}

Atom   0C    basis set group =>   1
Atom   1H    basis set group =>   2
Atom   2H    basis set group =>   2
Atom   3H    basis set group =>   2
---------------------------------
AUXILIARY/C BASIS SET INFORMATION
---------------------------------
There are 2 groups of distinct atoms

 Group   1 Type C   : 20s17p16d8f3g contracted to 20s17p16d8f3g pattern {11111111111111111111/11111111111111111/1111111111111111/11111111/111}
 Group   2 Type H   : 17s7p3d contracted to 17s7p3d pattern {11111111111111111/1111111/111}

Atom   0C    basis set group =>   1
Atom   1H    basis set group =>   2
Atom   2H    basis set group =>   2
Atom   3H    basis set group =>   2
----------------------------------
AUXILIARY/JK BASIS SET INFORMATION
----------------------------------
There are 2 groups of distinct atoms

 Group   1 Type C   : 20s17p16d8f3g contracted to 20s17p16d8f3g pattern {11111111111111111111/11111111111111111/1111111111111111/11111111/111}
 Group   2 Type H   : 17s7p3d contracted to 17s7p3d pattern {11111111111111111/1111111/111}

Atom   0C    basis set group =>   1
Atom   1H    basis set group =>   2
Atom   2H    basis set group =>   2
Atom   3H    basis set group =>   2


           ************************************************************
           *        Program running with 4 parallel MPI-processes     *
           *              working on a common directory               *
           ************************************************************
------------------------------------------------------------------------------
                           ORCA GTO INTEGRAL CALCULATION
                           -- RI-GTO INTEGRALS CHOSEN --
------------------------------------------------------------------------------
------------------------------------------------------------------------------
                   ___                                                        
                  /   \      - P O W E R E D   B Y -                         
                 /     \                                                     
                 |  |  |   _    _      __       _____    __    __             
                 |  |  |  | |  | |    /  \     |  _  \  |  |  /  |          
                  \  \/   | |  | |   /    \    | | | |  |  | /  /          
                 / \  \   | |__| |  /  /\  \   | |_| |  |  |/  /          
                |  |  |   |  __  | /  /__\  \  |    /   |      \           
                |  |  |   | |  | | |   __   |  |    \   |  |\   \          
                \     /   | |  | | |  |  |  |  | |\  \  |  | \   \       
                 \___/    |_|  |_| |__|  |__|  |_| \__\ |__|  \__/        
                                                                              
                      - O R C A' S   B I G   F R I E N D -                    
                                      &                                       
                       - I N T E G R A L  F E E D E R -                       
                                                                              
 v1 FN, 2020, v2 2021                                                         
------------------------------------------------------------------------------


Reading SHARK input file /home/rwth0701/scratch/cs681498/orcajob__30556537-62XP/17194.SHARKINP.tmp ... ok
----------------------
SHARK INTEGRAL PACKAGE
----------------------

Number of atoms                             ...      4
Number of basis functions                   ...     73
Number of shells                            ...     37
Maximum angular momentum                    ...      3
Integral batch strategy                     ... SHARK/LIBINT Hybrid
RI-J (if used) integral strategy            ... SPLIT-RIJ (Revised 2003 algorithm where possible)
Printlevel                                  ...      1
Contraction scheme used                     ... SEGMENTED contraction
Coulomb Range Separation                    ... NOT USED
Exchange Range Separation                   ... NOT USED
Finite Nucleus Model                        ... NOT USED
Auxiliary Coulomb fitting basis             ... AVAILABLE
   # of basis functions in Aux-J            ...    393
   # of shells in Aux-J                     ...    145
   Maximum angular momentum in Aux-J        ...      4
Auxiliary J/K fitting basis                 ... AVAILABLE
   # of basis functions in Aux-JK           ...    393
   # of shells in Aux-JK                    ...    145
   Maximum angular momentum in Aux-JK       ...      4
Auxiliary Correlation fitting basis         ... AVAILABLE
   # of basis functions in Aux-C            ...    393
   # of shells in Aux-C                     ...    145
   Maximum angular momentum in Aux-C        ...      4
Auxiliary 'external' fitting basis          ... NOT available
Integral threshold                          ...     1.000000e-10
Primitive cut-off                           ...     1.000000e-11
Primitive pair pre-selection threshold      ...     1.000000e-11

Calculating pre-screening integrals         ... done (  0.0 sec) Dimension = 37
Organizing shell pair data                  ... done (  0.0 sec)
Shell pair information
Total number of shell pairs                 ...       703
Shell pairs after pre-screening             ...       688
Total number of primitive shell pairs       ...      1300
Primitive shell pairs kept                  ...      1183
          la=0 lb=0:    261 shell pairs
          la=1 lb=0:    253 shell pairs
          la=1 lb=1:     66 shell pairs
          la=2 lb=0:     46 shell pairs
          la=2 lb=1:     22 shell pairs
          la=2 lb=2:      3 shell pairs
          la=3 lb=0:     23 shell pairs
          la=3 lb=1:     11 shell pairs
          la=3 lb=2:      2 shell pairs
          la=3 lb=3:      1 shell pairs

Calculating one electron integrals          ... done (  0.0 sec)
Calculating RI/J V-Matrix + Cholesky decomp.... done (  0.1 sec)
Calculating RI/JK V-Matrix + Cholesky decomp... done (  0.1 sec)
Calculating RI/C V-Matrix + Cholesky decomp.... done (  0.1 sec)
Calculating Nuclear repulsion               ... done (  0.0 sec) ENN=      9.934735733334 Eh

SHARK setup successfully completed in   1.0 seconds

Maximum memory used throughout the entire GTOINT-calculation: 13.7 MB


           ************************************************************
           *        Program running with 4 parallel MPI-processes     *
           *              working on a common directory               *
           ************************************************************
-------------------------------------------------------------------------------
                                 ORCA SCF
-------------------------------------------------------------------------------

------------
SCF SETTINGS
------------
Hamiltonian:
 Density Functional     Method          .... DFT(GTOs)
 Exchange Functional    Exchange        .... B88
   X-Alpha parameter    XAlpha          ....  0.666667
   Becke's b parameter  XBeta           ....  0.004200
 Correlation Functional Correlation     .... LYP
 LDA part of GGA corr.  LDAOpt          .... VWN-5
 Gradients option       PostSCFGGA      .... off
 Hybrid DFT is turned on
   Fraction HF Exchange ScalHFX         ....  0.200000
   Scaling of DF-GGA-X  ScalDFX         ....  0.720000
   Scaling of DF-GGA-C  ScalDFC         ....  0.810000
   Scaling of DF-LDA-C  ScalLDAC        ....  1.000000
   Perturbative correction              ....  0.000000
   Density functional embedding theory  .... OFF
   NL short-range parameter             ....  4.800000
 RI-approximation to the Coulomb term is turned on
   Number of AuxJ basis functions       .... 393
   RIJ-COSX (HFX calculated with COS-X)).... on


General Settings:
 Integral files         IntName         .... /home/rwth0701/scratch/cs681498/orcajob__30556537-62XP/17194
 Hartree-Fock type      HFTyp           .... UHF
 Total Charge           Charge          ....    0
 Multiplicity           Mult            ....    2
 Number of Electrons    NEL             ....    9
 Basis Dimension        Dim             ....   73
 Nuclear Repulsion      ENuc            ....      9.9347357333 Eh

Convergence Acceleration:
 DIIS                   CNVDIIS         .... on
   Start iteration      DIISMaxIt       ....    12
   Startup error        DIISStart       ....  0.200000
   # of expansion vecs  DIISMaxEq       ....     5
   Bias factor          DIISBfac        ....   1.050
   Max. coefficient     DIISMaxC        ....  10.000
 Trust-Rad. Augm. Hess. CNVTRAH         .... auto
   Auto Start mean grad. ratio tolernc. ....  1.125000
   Auto Start start iteration           ....    20
   Auto Start num. interpolation iter.  ....    10
   Max. Number of Micro iterations      ....    16
   Max. Number of Macro iterations      .... Maxiter - #DIIS iter
   Number of Davidson start vectors     ....     2
   Converg. threshold I  (grad. norm)   ....   5.000e-05
   Converg. threshold II (energy diff.) ....   1.000e-06
   Grad. Scal. Fac. for Micro threshold ....   0.100
   Minimum threshold for Micro iter.    ....   0.010
   NR start threshold (gradient norm)   ....   0.001
   Initial trust radius                 ....   0.400
   Minimum AH scaling param. (alpha)    ....   1.000
   Maximum AH scaling param. (alpha)    .... 1000.000
   Orbital update algorithm             .... Taylor
   White noise on init. David. guess    .... on
   Maximum white noise                  ....   0.010
   Quad. conv. algorithm                .... NR
 SOSCF                  CNVSOSCF        .... off
 Level Shifting         CNVShift        .... on
   Level shift para.    LevelShift      ....    0.2500
   Turn off err/grad.   ShiftErr        ....    0.0010
 Zerner damping         CNVZerner       .... off
 Static damping         CNVDamp         .... on
   Fraction old density DampFac         ....    0.7000
   Max. Damping (<1)    DampMax         ....    0.9800
   Min. Damping (>=0)   DampMin         ....    0.0000
   Turn off err/grad.   DampErr         ....    0.1000
 Fernandez-Rico         CNVRico         .... off

SCF Procedure:
 Maximum # iterations   MaxIter         ....   125
 SCF integral mode      SCFMode         .... Direct
   Integral package                     .... SHARK and LIBINT hybrid scheme
 Reset frequency        DirectResetFreq ....    20
 Integral Threshold     Thresh          ....  1.000e-10 Eh
 Primitive CutOff       TCut            ....  1.000e-11 Eh

Convergence Tolerance:
 Convergence Check Mode ConvCheckMode   .... Total+1el-Energy
 Convergence forced     ConvForced      .... 0
 Energy Change          TolE            ....  1.000e-06 Eh
 1-El. energy change                    ....  1.000e-03 Eh
 DIIS Error             TolErr          ....  1.000e-06


Diagonalization of the overlap matrix:
Smallest eigenvalue                        ... 1.462e-03
Time for diagonalization                   ...    0.001 sec
Threshold for overlap eigenvalues          ... 1.000e-08
Number of eigenvalues below threshold      ... 0
Time for construction of square roots      ...    0.008 sec
Total time needed                          ...    0.010 sec

Time for model grid setup =    0.121 sec

------------------------------
INITIAL GUESS: MODEL POTENTIAL
------------------------------
Loading Hartree-Fock densities                     ... done
Calculating cut-offs                               ... done
Initializing the effective Hamiltonian             ... done
Setting up the integral package (SHARK)            ... done
Starting the Coulomb interaction                   ... done (   0.1 sec)
Reading the grid                                   ... done
Mapping shells                                     ... done
Starting the XC term evaluation                    ... done (   0.0 sec)
  promolecular density results
     # of electrons  =      8.998545853
     EX              =     -5.984322902
     EC              =     -0.261370738
     EX+EC           =     -6.245693640
Transforming the Hamiltonian                       ... done (   0.0 sec)
Diagonalizing the Hamiltonian                      ... done (   0.0 sec)
Back transforming the eigenvectors                 ... done (   0.0 sec)
Now organizing SCF variables                       ... done
                      ------------------
                      INITIAL GUESS DONE (   0.2 sec)
                      ------------------
-------------------
DFT GRID GENERATION
-------------------

General Integration Accuracy     IntAcc      ... 4.388
Radial Grid Type                 RadialGrid  ... OptM3 with GC (2021)
Angular Grid (max. ang.)         AngularGrid ... 4 (Lebedev-302)
Angular grid pruning method      GridPruning ... 4 (adaptive)
Weight generation scheme         WeightScheme... Becke
Basis function cutoff            BFCut       ... 1.0000e-10
Integration weight cutoff        WCut        ... 1.0000e-14
Angular grids for H and He will be reduced by one unit
Partially contracted basis set               ... off
Rotationally invariant grid construction     ... off

Total number of grid points                  ...    17026
Total number of batches                      ...      268
Average number of points per batch           ...       63
Average number of grid points per atom       ...     4256
Time for grid setup =    0.229 sec

--------------------
COSX GRID GENERATION
--------------------

GRIDX 1
-------
General Integration Accuracy     IntAcc      ... 3.816
Radial Grid Type                 RadialGrid  ... OptM3 with GC (2021)
Angular Grid (max. ang.)         AngularGrid ... 1 (Lebedev-50)
Angular grid pruning method      GridPruning ... 4 (adaptive)
Weight generation scheme         WeightScheme... Becke
Basis function cutoff            BFCut       ... 1.0000e-10
Integration weight cutoff        WCut        ... 1.0000e-14
Angular grids for H and He will be reduced by one unit
Partially contracted basis set               ... on
Rotationally invariant grid construction     ... off

Total number of grid points                  ...     2146
Total number of batches                      ...       35
Average number of points per batch           ...       61
Average number of grid points per atom       ...      536
UseSFitting                                  ... on

GRIDX 2
-------
General Integration Accuracy     IntAcc      ... 4.020
Radial Grid Type                 RadialGrid  ... OptM3 with GC (2021)
Angular Grid (max. ang.)         AngularGrid ... 2 (Lebedev-110)
Angular grid pruning method      GridPruning ... 4 (adaptive)
Weight generation scheme         WeightScheme... Becke
Basis function cutoff            BFCut       ... 1.0000e-10
Integration weight cutoff        WCut        ... 1.0000e-14
Angular grids for H and He will be reduced by one unit
Partially contracted basis set               ... on
Rotationally invariant grid construction     ... off

Total number of grid points                  ...     5053
Total number of batches                      ...       82
Average number of points per batch           ...       61
Average number of grid points per atom       ...     1263
UseSFitting                                  ... on

GRIDX 3
-------
General Integration Accuracy     IntAcc      ... 4.338
Radial Grid Type                 RadialGrid  ... OptM3 with GC (2021)
Angular Grid (max. ang.)         AngularGrid ... 3 (Lebedev-194)
Angular grid pruning method      GridPruning ... 4 (adaptive)
Weight generation scheme         WeightScheme... Becke
Basis function cutoff            BFCut       ... 1.0000e-10
Integration weight cutoff        WCut        ... 1.0000e-14
Angular grids for H and He will be reduced by one unit
Partially contracted basis set               ... on
Rotationally invariant grid construction     ... off

Total number of grid points                  ...    11723
Total number of batches                      ...      185
Average number of points per batch           ...       63
Average number of grid points per atom       ...     2931
UseSFitting                                  ... on

Time for X-Grid setup             =    0.325 sec

--------------
SCF ITERATIONS
--------------
ITER       Energy         Delta-E        Max-DP      RMS-DP      [F,P]     Damp
               ***  Starting incremental Fock matrix formation  ***
  0    -39.7787859863   0.000000000000 0.01646745  0.00052779  0.0981891 0.7000
  1    -39.8000073388  -0.021221352498 0.01033689  0.00039200  0.0519589 0.7000
                               ***Turning on DIIS***
  2    -39.8095303223  -0.009522983497 0.01672619  0.00068494  0.0215119 0.0000
  3    -39.8225653327  -0.013035010407 0.00909419  0.00029236  0.0298225 0.0000
  4    -39.8263951309  -0.003829798145 0.00318364  0.00008188  0.0061759 0.0000
  5    -39.8265527178  -0.000157586902 0.00111334  0.00003256  0.0019975 0.0000
  6    -39.8265696561  -0.000016938345 0.00089953  0.00002407  0.0008299 0.0000
               *** Restarting incremental Fock matrix formation ***
                                   *** Resetting DIIS ***
  7    -39.8265751873  -0.000005531144 0.00007169  0.00000292  0.0000923 0.0000
                 **** Energy Check signals convergence ****

               *****************************************************
               *                     SUCCESS                       *
               *           SCF CONVERGED AFTER   8 CYCLES          *
               *****************************************************

Old exchange energy                            =     -1.248100836 Eh
New exchange energy                            =     -1.248100629 Eh
Exchange energy change after final integration =      0.000000207 Eh
Total energy after final integration           =    -39.826575043 Eh
Final COS-X integration done in                =     0.214 sec

----------------
TOTAL SCF ENERGY
----------------

Total Energy       :          -39.82657504 Eh           -1083.73620 eV

Components:
Nuclear Repulsion  :            9.93473573 Eh             270.33790 eV
Electronic Energy  :          -49.76131078 Eh           -1354.07411 eV
One Electron Energy:          -72.13002264 Eh           -1962.75770 eV
Two Electron Energy:           22.36871186 Eh             608.68359 eV
Max COSX asymmetry :            0.00000004 Eh               0.00000 eV

Virial components:
Potential Energy   :          -79.57439954 Eh           -2165.32949 eV
Kinetic Energy     :           39.74782450 Eh            1081.59329 eV
Virial Ratio       :            2.00198125


DFT components:
N(Alpha)           :        4.999999473291 electrons
N(Beta)            :        4.000000424862 electrons
N(Total)           :        8.999999898153 electrons
E(X)               :       -4.937481571501 Eh       
E(C)               :       -0.311120579620 Eh       
E(XC)              :       -5.248602151121 Eh       
DFET-embed. en.    :        0.000000000000 Eh       

---------------
SCF CONVERGENCE
---------------

  Last Energy change         ...   -6.3027e-08  Tolerance :   1.0000e-06
  Last MAX-Density change    ...    0.0000e+00  Tolerance :   1.0000e-05
  Last RMS-Density change    ...    0.0000e+00  Tolerance :   1.0000e-06
  Last DIIS Error            ...    7.1798e-05  Tolerance :   1.0000e-06

             **** THE GBW FILE WAS UPDATED (/home/rwth0701/scratch/cs681498/orcajob__30556537-62XP/17194.gbw) ****
             **** DENSITY /home/rwth0701/scratch/cs681498/orcajob__30556537-62XP/17194.scfp WAS UPDATED ****
             **** ENERGY FILE WAS UPDATED (/home/rwth0701/scratch/cs681498/orcajob__30556537-62XP/17194.en.tmp) ****
----------------------
UHF SPIN CONTAMINATION
----------------------

Warning: in a DFT calculation there is little theoretical justification to 
         calculate <S**2> as in Hartree-Fock theory. We will do it anyways
         but you should keep in mind that the values have only limited relevance

Expectation value of <S**2>     :     0.753347
Ideal value S*(S+1) for S=0.5   :     0.750000
Deviation                       :     0.003347

             **** THE GBW FILE WAS UPDATED (/home/rwth0701/scratch/cs681498/orcajob__30556537-62XP/17194.gbw) ****
             **** DENSITY /home/rwth0701/scratch/cs681498/orcajob__30556537-62XP/17194.scfp WAS UPDATED ****
----------------
ORBITAL ENERGIES
----------------
                 SPIN UP ORBITALS
  NO   OCC          E(Eh)            E(eV) 
   0   1.0000     -10.175139      -276.8796 
   1   1.0000      -0.695562       -18.9272 
   2   1.0000      -0.433985       -11.8093 
   3   1.0000      -0.424374       -11.5478 
   4   1.0000      -0.234545        -6.3823 
   5   0.0000       0.001836         0.0500 
   6   0.0000       0.036268         0.9869 
   7   0.0000       0.037437         1.0187 
   8   0.0000       0.047645         1.2965 
   9   0.0000       0.092718         2.5230 
  10   0.0000       0.097103         2.6423 
  11   0.0000       0.099419         2.7053 
  12   0.0000       0.221391         6.0244 
  13   0.0000       0.224011         6.0957 
  14   0.0000       0.247829         6.7438 
  15   0.0000       0.276740         7.5305 
  16   0.0000       0.312528         8.5043 
  17   0.0000       0.320803         8.7295 
  18   0.0000       0.355897         9.6844 
  19   0.0000       0.558865        15.2075 
  20   0.0000       0.568319        15.4647 
  21   0.0000       0.739391        20.1199 
  22   0.0000       0.745211        20.2782 
  23   0.0000       0.760770        20.7016 
  24   0.0000       0.852342        23.1934 
  25   0.0000       0.902407        24.5558 
  26   0.0000       0.909830        24.7577 
  27   0.0000       0.949091        25.8261 
  28   0.0000       0.976408        26.5694 
  29   0.0000       1.062442        28.9105 
  30   0.0000       1.084945        29.5229 
  31   0.0000       1.106921        30.1208 
  32   0.0000       1.170008        31.8375 
  33   0.0000       1.171939        31.8901 
  34   0.0000       1.482180        40.3322 
  35   0.0000       1.501912        40.8691 
  36   0.0000       1.524978        41.4967 
  37   0.0000       1.716367        46.7047 
  38   0.0000       1.757797        47.8321 
  39   0.0000       1.768470        48.1225 
  40   0.0000       2.711110        73.7731 
  41   0.0000       2.716793        73.9277 
  42   0.0000       2.897203        78.8369 
  43   0.0000       2.910393        79.1958 
  44   0.0000       2.933249        79.8178 
  45   0.0000       2.942400        80.0668 
  46   0.0000       3.003731        81.7357 
  47   0.0000       3.170112        86.2631 
  48   0.0000       3.183838        86.6366 
  49   0.0000       3.241707        88.2113 
  50   0.0000       3.244862        88.2972 
  51   0.0000       3.712039       101.0097 
  52   0.0000       3.812658       103.7477 
  53   0.0000       3.873431       105.4014 
  54   0.0000       3.955792       107.6426 
  55   0.0000       4.031531       109.7035 
  56   0.0000       4.100052       111.5681 
  57   0.0000       4.179777       113.7375 
  58   0.0000       4.206362       114.4609 
  59   0.0000       4.212652       114.6321 
  60   0.0000       4.785943       130.2321 
  61   0.0000       4.992778       135.8604 
  62   0.0000       5.439201       148.0082 
  63   0.0000       5.488395       149.3468 
  64   0.0000       5.612282       152.7179 
  65   0.0000       6.164871       167.7547 
  66   0.0000       6.198945       168.6819 
  67   0.0000       7.861476       213.9216 
  68   0.0000      29.143048       793.0227 
  69   0.0000      37.206856      1012.4500 
  70   0.0000      37.230046      1013.0811 
  71   0.0000      37.244270      1013.4681 
  72   0.0000     133.616936      3635.9017 

                 SPIN DOWN ORBITALS
  NO   OCC          E(Eh)            E(eV) 
   0   1.0000     -10.160877      -276.4915 
   1   1.0000      -0.656417       -17.8620 
   2   1.0000      -0.424337       -11.5468 
   3   1.0000      -0.414490       -11.2789 
   4   0.0000      -0.077527        -2.1096 
   5   0.0000       0.004733         0.1288 
   6   0.0000       0.035844         0.9754 
   7   0.0000       0.036982         1.0063 
   8   0.0000       0.060830         1.6553 
   9   0.0000       0.094033         2.5588 
  10   0.0000       0.097370         2.6496 
  11   0.0000       0.103480         2.8158 
  12   0.0000       0.222494         6.0544 
  13   0.0000       0.225217         6.1285 
  14   0.0000       0.268547         7.3075 
  15   0.0000       0.310938         8.4610 
  16   0.0000       0.317344         8.6354 
  17   0.0000       0.325256         8.8507 
  18   0.0000       0.369951        10.0669 
  19   0.0000       0.586400        15.9568 
  20   0.0000       0.596645        16.2355 
  21   0.0000       0.740433        20.1482 
  22   0.0000       0.746437        20.3116 
  23   0.0000       0.789212        21.4755 
  24   0.0000       0.850785        23.1510 
  25   0.0000       0.906524        24.6678 
  26   0.0000       0.915148        24.9024 
  27   0.0000       0.966167        26.2907 
  28   0.0000       0.997471        27.1426 
  29   0.0000       1.104434        30.0532 
  30   0.0000       1.121923        30.5291 
  31   0.0000       1.129301        30.7298 
  32   0.0000       1.182988        32.1908 
  33   0.0000       1.184152        32.2224 
  34   0.0000       1.502502        40.8852 
  35   0.0000       1.513960        41.1970 
  36   0.0000       1.531778        41.6818 
  37   0.0000       1.719318        46.7850 
  38   0.0000       1.766569        48.0708 
  39   0.0000       1.777135        48.3583 
  40   0.0000       2.751860        74.8819 
  41   0.0000       2.757516        75.0358 
  42   0.0000       2.910894        79.2094 
  43   0.0000       2.937778        79.9410 
  44   0.0000       2.940179        80.0063 
  45   0.0000       2.982082        81.1466 
  46   0.0000       3.057045        83.1864 
  47   0.0000       3.219445        87.6055 
  48   0.0000       3.232945        87.9729 
  49   0.0000       3.298765        89.7640 
  50   0.0000       3.302008        89.8522 
  51   0.0000       3.773857       102.6919 
  52   0.0000       3.813159       103.7613 
  53   0.0000       3.872646       105.3801 
  54   0.0000       3.957609       107.6920 
  55   0.0000       4.047475       110.1374 
  56   0.0000       4.117052       112.0307 
  57   0.0000       4.205879       114.4478 
  58   0.0000       4.210307       114.5683 
  59   0.0000       4.216372       114.7333 
  60   0.0000       4.786482       130.2468 
  61   0.0000       5.015765       136.4859 
  62   0.0000       5.437697       147.9673 
  63   0.0000       5.486515       149.2957 
  64   0.0000       5.610537       152.6705 
  65   0.0000       6.168853       167.8630 
  66   0.0000       6.203141       168.7960 
  67   0.0000       7.897480       214.9014 
  68   0.0000      29.169927       793.7541 
  69   0.0000      37.195461      1012.1400 
  70   0.0000      37.218782      1012.7745 
  71   0.0000      37.233486      1013.1747 
  72   0.0000     133.624710      3636.1132 

                    ********************************
                    * MULLIKEN POPULATION ANALYSIS *
                    ********************************

--------------------------------------------
MULLIKEN ATOMIC CHARGES AND SPIN POPULATIONS
--------------------------------------------
   0 C :   -0.427962    1.097690
   1 H :    0.144831   -0.032238
   2 H :    0.141495   -0.033617
   3 H :    0.141637   -0.031835
Sum of atomic charges         :   -0.0000000
Sum of atomic spin populations:    1.0000000

-----------------------------------------------------
MULLIKEN REDUCED ORBITAL CHARGES AND SPIN POPULATIONS
-----------------------------------------------------
CHARGE
  0 C s       :     3.315218  s :     3.315218
      pz      :     0.967602  p :     3.086500
      px      :     1.058699
      py      :     1.060199
      dz2     :     0.005749  d :     0.023005
      dxz     :     0.000121
      dyz     :     0.000214
      dx2y2   :     0.007770
      dxy     :     0.009152
      f0      :     0.000053  f :     0.003239
      f+1     :     0.000708
      f-1     :     0.000706
      f+2     :     0.000032
      f-2     :     0.000030
      f+3     :     0.001437
      f-3     :     0.000272
  1 H s       :     0.827577  s :     0.827577
      pz      :     0.011199  p :     0.027592
      px      :     0.007076
      py      :     0.009317
  2 H s       :     0.831712  s :     0.831712
      pz      :     0.010771  p :     0.026793
      px      :     0.009670
      py      :     0.006352
  3 H s       :     0.830610  s :     0.830610
      pz      :     0.011169  p :     0.027754
      px      :     0.007828
      py      :     0.008757

SPIN
  0 C s       :     0.066578  s :     0.066578
      pz      :     0.958054  p :     1.035513
      px      :     0.036686
      py      :     0.040774
      dz2     :    -0.004630  d :    -0.003018
      dxz     :    -0.000021
      dyz     :    -0.000100
      dx2y2   :     0.000781
      dxy     :     0.000951
      f0      :    -0.000026  f :    -0.001383
      f+1     :    -0.000635
      f-1     :    -0.000625
      f+2     :    -0.000016
      f-2     :    -0.000017
      f+3     :    -0.000055
      f-3     :    -0.000009
  1 H s       :    -0.043095  s :    -0.043095
      pz      :     0.011101  p :     0.010857
      px      :    -0.000189
      py      :    -0.000055
  2 H s       :    -0.044007  s :    -0.044007
      pz      :     0.010701  p :     0.010390
      px      :    -0.000111
      py      :    -0.000200
  3 H s       :    -0.042470  s :    -0.042470
      pz      :     0.011100  p :     0.010635
      px      :    -0.000324
      py      :    -0.000141


                     *******************************
                     * LOEWDIN POPULATION ANALYSIS *
                     *******************************

-------------------------------------------
LOEWDIN ATOMIC CHARGES AND SPIN POPULATIONS
-------------------------------------------
   0 C :   -0.123184    0.894312
   1 H :    0.041856    0.035019
   2 H :    0.049731    0.032389
   3 H :    0.031596    0.038280

----------------------------------------------------
LOEWDIN REDUCED ORBITAL CHARGES AND SPIN POPULATIONS
----------------------------------------------------
CHARGE
  0 C s       :     2.858668  s :     2.858668
      pz      :     0.864860  p :     3.164114
      px      :     1.148347
      py      :     1.150908
      dz2     :     0.007453  d :     0.092496
      dxz     :     0.000450
      dyz     :     0.000566
      dx2y2   :     0.040342
      dxy     :     0.043684
      f0      :     0.000325  f :     0.007905
      f+1     :     0.001929
      f-1     :     0.001928
      f+2     :     0.000073
      f-2     :     0.000078
      f+3     :     0.002973
      f-3     :     0.000599
  1 H s       :     0.805864  s :     0.805864
      pz      :     0.046003  p :     0.152280
      px      :     0.040486
      py      :     0.065791
  2 H s       :     0.803048  s :     0.803048
      pz      :     0.043767  p :     0.147221
      px      :     0.069275
      py      :     0.034179
  3 H s       :     0.809032  s :     0.809032
      pz      :     0.048034  p :     0.159371
      px      :     0.050921
      py      :     0.060416

SPIN
  0 C s       :     0.017652  s :     0.017652
      pz      :     0.854246  p :     0.885273
      px      :     0.013536
      py      :     0.017491
      dz2     :    -0.004092  d :    -0.007321
      dxz     :    -0.000041
      dyz     :    -0.000110
      dx2y2   :    -0.001482
      dxy     :    -0.001597
      f0      :     0.000177  f :    -0.001292
      f+1     :    -0.000569
      f-1     :    -0.000550
      f+2     :    -0.000016
      f-2     :    -0.000017
      f+3     :    -0.000265
      f-3     :    -0.000051
  1 H s       :    -0.015770  s :    -0.015770
      pz      :     0.045354  p :     0.050789
      px      :     0.001330
      py      :     0.004105
  2 H s       :    -0.016257  s :    -0.016257
      pz      :     0.043367  p :     0.048646
      px      :     0.004342
      py      :     0.000937
  3 H s       :    -0.014719  s :    -0.014719
      pz      :     0.047648  p :     0.052999
      px      :     0.001991
      py      :     0.003360


                      *****************************
                      * MAYER POPULATION ANALYSIS *
                      *****************************

  NA   - Mulliken gross atomic population
  ZA   - Total nuclear charge
  QA   - Mulliken gross atomic charge
  VA   - Mayer's total valence
  BVA  - Mayer's bonded valence
  FA   - Mayer's free valence

  ATOM       NA         ZA         QA         VA         BVA        FA
  0 C      6.4280     6.0000    -0.4280     3.8861     2.9438     0.9423
  1 H      0.8552     1.0000     0.1448     0.9866     0.9847     0.0019
  2 H      0.8585     1.0000     0.1415     0.9857     0.9838     0.0019
  3 H      0.8584     1.0000     0.1416     0.9834     0.9816     0.0018

  Mayer bond orders larger than 0.100000
B(  0-C ,  1-H ) :   0.9810 B(  0-C ,  2-H ) :   0.9813 B(  0-C ,  3-H ) :   0.9815 


-------
TIMINGS
-------

Total SCF time: 0 days 0 hours 0 min 6 sec 

Total time                  ....       6.269 sec
Sum of individual times     ....       5.361 sec  ( 85.5%)

Fock matrix formation       ....       4.333 sec  ( 69.1%)
  Split-RI-J                ....       0.427 sec  (  9.9% of F)
  Chain of spheres X        ....       0.969 sec  ( 22.4% of F)
  XC integration            ....       1.678 sec  ( 38.7% of F)
    Basis function eval.    ....       0.112 sec  (  6.7% of XC)
    Density eval.           ....       0.104 sec  (  6.2% of XC)
    XC-Functional eval.     ....       0.091 sec  (  5.4% of XC)
    XC-Potential eval.      ....       0.162 sec  (  9.6% of XC)
Diagonalization             ....       0.061 sec  (  1.0%)
Density matrix formation    ....       0.004 sec  (  0.1%)
Population analysis         ....       0.067 sec  (  1.1%)
Initial guess               ....       0.112 sec  (  1.8%)
Orbital Transformation      ....       0.000 sec  (  0.0%)
Orbital Orthonormalization  ....       0.000 sec  (  0.0%)
DIIS solution               ....       0.109 sec  (  1.7%)
Grid generation             ....       0.675 sec  ( 10.8%)

Maximum memory used throughout the entire SCF-calculation: 59.0 MB

-------------------------   --------------------
FINAL SINGLE POINT ENERGY       -39.826575043142
-------------------------   --------------------

   --->>> g-tensor requested, so NeedSOC=true

                            ***************************************
                            *     ORCA property calculations      *
                            ***************************************

                                    ---------------------
                                    Active property flags
                                    ---------------------
   (+) Dipole Moment
   (+) g-tensor
   (+) Nuclear properties (Hyperfine,Quadrupole)
   (+) Spin-Orbit Integrals are needed


------------------------------------------------------------------------------
                       ORCA ELECTRIC PROPERTIES CALCULATION
------------------------------------------------------------------------------

Dipole Moment Calculation                       ... on
Quadrupole Moment Calculation                   ... off
Polarizability Calculation                      ... off
GBWName                                         ... /home/rwth0701/scratch/cs681498/orcajob__30556537-62XP/17194.gbw
Electron density                                ... /home/rwth0701/scratch/cs681498/orcajob__30556537-62XP/17194.scfp
The origin for moment calculation is the CENTER OF MASS  = (-151.560909, -201.501168 -57.490273)

-------------
DIPOLE MOMENT
-------------
                                X             Y             Z
Electronic contribution:      0.01246       0.03085      -0.00027
Nuclear contribution   :     -0.00777      -0.03896       0.00202
                        -----------------------------------------
Total Dipole Moment    :      0.00469      -0.00811       0.00175
                        -----------------------------------------
Magnitude (a.u.)       :      0.00953
Magnitude (Debye)      :      0.02423



--------------------
Rotational spectrum 
--------------------
 
Rotational constants in cm-1:    10.666562     9.567926     5.043756 
Rotational constants in MHz : 319775.479808 286839.213454 151208.001626 

 Dipole components along the rotational axes: 
x,y,z [a.u.] :    -0.001789     0.009095     0.002224 
x,y,z [Debye]:    -0.004548     0.023118     0.005654 

 


           ************************************************************
           *        Program running with 4 parallel MPI-processes     *
           *              working on a common directory               *
           ************************************************************
------------------------------------------------------------------------------
                         ORCA SPIN-ORBIT COUPLING CALCULATION
------------------------------------------------------------------------------

GBW file                                    ... /home/rwth0701/scratch/cs681498/orcajob__30556537-62XP/17194.gbw
Input density                               ... /home/rwth0701/scratch/cs681498/orcajob__30556537-62XP/17194.scfp
Output integrals                            ... /home/rwth0701/scratch/cs681498/orcajob__30556537-62XP/17194
Operator type                               ... Mean-field/Effective potential
   One-Electron Terms                       ... 1
   Coulomb Contribution                     ... 3
   Exchange Contribution                    ... 3
   Correlation Contribution                 ... 0
   Maximum number of centers                ... 4
SHARK 2-electron RIJ-SOMF                   ... done (  0.2 sec)
SHARK 1-electron  MaxCenter=4               ... done (  0.0 sec)
SHARK 2-electron DoJ,X=0,1 MaxCenter=1      ... done (  0.1 sec)

Maximum memory used throughout the entire SOC-calculation: 11.3 MB
Total time for SOC:  2.846


           ************************************************************
           *        Program running with 4 parallel MPI-processes     *
           *              working on a common directory               *
           ************************************************************
------------------------------------------------------------------------------
                                ORCA EPR/NMR CALCULATION
------------------------------------------------------------------------------

GBWName                      ... /home/rwth0701/scratch/cs681498/orcajob__30556537-62XP/17194.gbw
Electron density             ... /home/rwth0701/scratch/cs681498/orcajob__30556537-62XP/17194.scfp
Spin density                 ... /home/rwth0701/scratch/cs681498/orcajob__30556537-62XP/17194.scfr
Spin-orbit integrals         ... /home/rwth0701/scratch/cs681498/orcajob__30556537-62XP/17194
Treatment of gauge           ... GIAO (approximations 1/2el = 0,0)
Details of the CP(SCF) procedure:
       Solver   = POPLE   
       MaxIter  =    64   
       Tolerance=    1.000e-03
       COSX Grid=     1   
       Op-0     =   0-  4 =>   5- 72
       Op-1     =   0-  3 =>   4- 72
Multiplicity                 ... 2
g-tensor                     ... 1
NMR chemical shifts          ... 0
NMR spin-spin couplings      ... 0
NMR spectrum                 ... 0
Number of nuclei for epr/nmr ... 4
   Nucleus:   1H 
       Hyperfine : Isotope=    1 I=   0.500 P= 533.551
       Quadrupole: Isotope=    2 I=   1.000 Q=   0.003
       Spin-Orbit: Zeff=   1.000
       Nuclear Spin-Spin: Gn=   0.000
       EPRNMR Input: 
       rho(0)=N f(grad)=N a(iso)=Y a(dip)=Y a(orb)=Y sigma(nmr)=N spin-spin(nmr)=all-N,DSO-N,PSO-N,FC-N,SD-N
   Nucleus:   2H 
       Hyperfine : Isotope=    1 I=   0.500 P= 533.551
       Quadrupole: Isotope=    2 I=   1.000 Q=   0.003
       Spin-Orbit: Zeff=   1.000
       Nuclear Spin-Spin: Gn=   0.000
       EPRNMR Input: 
       rho(0)=N f(grad)=N a(iso)=Y a(dip)=Y a(orb)=Y sigma(nmr)=N spin-spin(nmr)=all-N,DSO-N,PSO-N,FC-N,SD-N
   Nucleus:   3H 
       Hyperfine : Isotope=    1 I=   0.500 P= 533.551
       Quadrupole: Isotope=    2 I=   1.000 Q=   0.003
       Spin-Orbit: Zeff=   1.000
       Nuclear Spin-Spin: Gn=   0.000
       EPRNMR Input: 
       rho(0)=N f(grad)=N a(iso)=Y a(dip)=Y a(orb)=Y sigma(nmr)=N spin-spin(nmr)=all-N,DSO-N,PSO-N,FC-N,SD-N
   Nucleus:   0C 
       Hyperfine : Isotope=   13 I=   0.500 P= 134.190
       Quadrupole: Isotope=   13 I=   0.500 Q=   0.000
       Spin-Orbit: Zeff=   3.600
       Nuclear Spin-Spin: Gn=   0.000
       EPRNMR Input: 
       rho(0)=N f(grad)=N a(iso)=Y a(dip)=Y a(orb)=Y sigma(nmr)=N spin-spin(nmr)=all-N,DSO-N,PSO-N,FC-N,SD-N
Forming RHS of the CP-SCF equations         ... 
Calculating right hand sides for GIAO treatment        ... 
  Entering RightHandSide GIAO. ScalHFX=    0.2000 NeedHFX=1
     -> 1-electron GIAO integrals will be done analytically
     -> RIJCOSX used in SCF. Same chosen for GIAO calculation.
     Making grid for GIAO integrations   ...

GRID GIAO
---------

General Integration Accuracy     IntAcc      ... 4.388
Radial Grid Type                 RadialGrid  ... OptM3 with GC (2021)
Angular Grid (max. ang.)         AngularGrid ... 4 (Lebedev-302)
Angular grid pruning method      GridPruning ... 4 (adaptive)
Weight generation scheme         WeightScheme... Becke
Basis function cutoff            BFCut       ... 1.0000e-10
Integration weight cutoff        WCut        ... 1.0000e-14
Angular grids for H and He will be reduced by one unit
Partially contracted basis set               ... off
Rotationally invariant grid construction     ... off

Total number of grid points                  ...    17026
Total number of batches                      ...      268
Average number of points per batch           ...       63
Average number of grid points per atom       ...     4256

  One-electron GIAO integrals (SHARK)     ... done
  Calculating G(B)[P]                     ... (RI-J: SHARK-ok) (COSX-ok) (add-J+K:ok) => dG/dB done
  DFT XC-terms                            ... done
  Extracting occupied and virtual blocks  ... 
  Operator  0  NO=   5 NV=  68 
  Operator  1  NO=   4 NV=  69 
  Transforming and RHS contribution       ... done
  Adding eps_i * S(B)_ai terms            ... done
  Projecting overlap derivatives          ... done
  Building G[dS/dB_ij] (COSX)             ... done
  Transforming to MO basis                ... done
  Summing G[dS/dB_ij] into RHS contribs.  ... done

  GIAO profiling information: 
    Total GIAO time               ...       0.9 sec
       GIAO 1-electron integrals  ...       0.0 sec (  0.5%)
       GIAO G(dS/dB) terms        ...       0.1 sec ( 12.3%)
       GIAO RI-J                  ...       0.1 sec ( 12.9%)
       GIAO COSX                  ...       0.2 sec ( 18.0%)
       GIAO XC-terms              ...       0.3 sec ( 34.3%)

  GIAO right hand side done


------------------------------------------------------------------------------
                           ORCA CP-SCF CALCULATION
------------------------------------------------------------------------------

Input orbitals are from        ... /home/rwth0701/scratch/cs681498/orcajob__30556537-62XP/17194.gbw
Input Perturbation             ... /home/rwth0701/scratch/cs681498/orcajob__30556537-62XP/17194.pin.tmp
Wavefunction output            ... /home/rwth0701/scratch/cs681498/orcajob__30556537-62XP/17194.pout.tmp
Perturbation mode              ... Imaginary perturbation
Solver                         ... POPLE
Max. number of iterations      ... 64
Convergence tolerance          ... 1.000e-03
Integral handling              ... Direct
DFT GridXC                     ... 1
COSX GridX                     ... 1
COSX IntAccX                   ... 3.067
COSX Algorithm                 ... Auto
Number of perturbations        ... 3
Number of operators            ... 2
Orbital ranges used for CP-SCF:
 Operator 0:  Orbitals   0...  4  to   5... 72
 Operator 1:  Orbitals   0...  3  to   4... 72
Variables per perturbation     ... 616
DFT calculation                         ... on
XC functional terms                     ... off
Hybrid DFT                              ... on
   Exchange mixing (SCF)                ...  0.200
   Exchange mixing (CP-SCF)             ...  0.200
   GGA exch. scaling(SCF)               ...  0.720
   GGA exch. scaling (CP-SCF)           ...  0.720
   GGA corr. scaling (SCF)              ...  0.810
   GGA corr. scaling (CP-SCF)           ...  0.810

CP-SCF GRID
-----------

General Integration Accuracy     IntAcc      ... 3.467
Radial Grid Type                 RadialGrid  ... OptM3 with GC (2021)
Angular Grid (max. ang.)         AngularGrid ... 1 (Lebedev-50)
Angular grid pruning method      GridPruning ... 4 (adaptive)
Weight generation scheme         WeightScheme... Becke
Basis function cutoff            BFCut       ... 1.0000e-10
Integration weight cutoff        WCut        ... 1.0000e-14
Angular grids for H and He will be reduced by one unit
Partially contracted basis set               ... off
Rotationally invariant grid construction     ... off

Total number of grid points                  ...     2343
Total number of batches                      ...       39
Average number of points per batch           ...       60
Average number of grid points per atom       ...      586

CP-SCF GRIDX
------------

General Integration Accuracy     IntAcc      ... 3.067
Radial Grid Type                 RadialGrid  ... OptM3 with GC (2021)
Angular Grid (max. ang.)         AngularGrid ... 1 (Lebedev-50)
Angular grid pruning method      GridPruning ... 4 (adaptive)
Weight generation scheme         WeightScheme... Becke
Basis function cutoff            BFCut       ... 1.0000e-10
Integration weight cutoff        WCut        ... 1.0000e-14
Angular grids for H and He will be reduced by one unit
Partially contracted basis set               ... on
Rotationally invariant grid construction     ... off

Total number of grid points                  ...     1074
Total number of batches                      ...       20
Average number of points per batch           ...       53
Average number of grid points per atom       ...      268

Memory available               ... 1014.6 MB
Memory needed per perturbation ...   0.4 MB
Perturbations treated per batch... 3
Number of batches              ... 1
     CP-SCF ITERATION   0:   9.8339e+00 (   0.1 sec   0/  3 done)
     CP-SCF ITERATION   1:   7.8103e-02 (   0.1 sec   0/  3 done)
     CP-SCF ITERATION   2:   3.3817e-03 (   0.1 sec   0/  3 done)
     CP-SCF ITERATION   3:   1.2765e-04 (   0.1 sec   3/  3 done)
                    *** THE CP-SCF HAS CONVERGED ***

Forming final perturbed densities           ... done
Transforming perturbed density to AO basis  ... done

Magnetic field perturbation calculated in  1.394 sec
GIAO: Diamagnetic terms      (analytic)     (SHARK) ... done
GIAO: 1el-Paramagnetic terms (analytic)     (SHARK) ... done

-------------------
ELECTRONIC G-MATRIX
-------------------

 The g-matrix: 
              2.0029184    0.0000089    0.0000324
              0.0000099    2.0029117    0.0000576
              0.0000335    0.0000609    2.0022422

 gel          2.0023193    2.0023193    2.0023193
 gRMC        -0.0001258   -0.0001258   -0.0001258
 gDSO(tot)    0.0000341    0.0000711    0.0000712
 gPSO(tot)    0.0000079    0.0006415    0.0006661
             ----------   ----------   ----------
 g(tot)       2.0022355    2.0029061    2.0029308 iso=  2.0026908
 Delta-g     -0.0000838    0.0005868    0.0006115 iso=  0.0003715
 Orientation: 
  X          -0.0468414   -0.6624101   -0.7476756
  Y          -0.0865418    0.7483739   -0.6576070
  Z           0.9951464    0.0339020   -0.0923810

Notes:  (1) The g-matrix conforms to the "BgS" spin Hamiltonian convention. 
        (2) The principal values are square roots of the eigenvalues of g*gT.
        (3) Orientations are eigenvectors of g*gT written as column vectors.
        (4) Individual contributions are projections of the full matrices onto the eigenvectors of g*gT.
        (5) Tensor is right-handed.


-----------------------------------------
ELECTRIC AND MAGNETIC HYPERFINE STRUCTURE
-----------------------------------------

 -----------------------------------------------------------
 Nucleus   1H : A:ISTP=    1 I=  0.5 P=533.5514 MHz/au**3
                Q:ISTP=    2 I=  1.0 Q=  0.0029 barn     
 -----------------------------------------------------------
 Solving for nuclear perturbation:
Forming RHS of the CP-SCF equations         ... 
Calc. nucleus orbit integrals (SHARK)       ... done

------------------------------------------------------------------------------
                           ORCA CP-SCF CALCULATION
------------------------------------------------------------------------------

Input orbitals are from        ... /home/rwth0701/scratch/cs681498/orcajob__30556537-62XP/17194.gbw
Input Perturbation             ... /home/rwth0701/scratch/cs681498/orcajob__30556537-62XP/17194.pin.tmp
Wavefunction output            ... /home/rwth0701/scratch/cs681498/orcajob__30556537-62XP/17194.pout.tmp
Perturbation mode              ... Imaginary perturbation
Solver                         ... POPLE
Max. number of iterations      ... 64
Convergence tolerance          ... 1.000e-03
Integral handling              ... Direct
DFT GridXC                     ... 1
COSX GridX                     ... 1
COSX IntAccX                   ... 3.067
COSX Algorithm                 ... Auto
Number of perturbations        ... 3
Number of operators            ... 2
Orbital ranges used for CP-SCF:
 Operator 0:  Orbitals   0...  4  to   5... 72
 Operator 1:  Orbitals   0...  3  to   4... 72
Variables per perturbation     ... 616
DFT calculation                         ... on
XC functional terms                     ... off
Hybrid DFT                              ... on
   Exchange mixing (SCF)                ...  0.200
   Exchange mixing (CP-SCF)             ...  0.200
   GGA exch. scaling(SCF)               ...  0.720
   GGA exch. scaling (CP-SCF)           ...  0.720
   GGA corr. scaling (SCF)              ...  0.810
   GGA corr. scaling (CP-SCF)           ...  0.810

CP-SCF GRID
-----------

General Integration Accuracy     IntAcc      ... 3.467
Radial Grid Type                 RadialGrid  ... OptM3 with GC (2021)
Angular Grid (max. ang.)         AngularGrid ... 1 (Lebedev-50)
Angular grid pruning method      GridPruning ... 4 (adaptive)
Weight generation scheme         WeightScheme... Becke
Basis function cutoff            BFCut       ... 1.0000e-10
Integration weight cutoff        WCut        ... 1.0000e-14
Angular grids for H and He will be reduced by one unit
Partially contracted basis set               ... off
Rotationally invariant grid construction     ... off

Total number of grid points                  ...     2343
Total number of batches                      ...       39
Average number of points per batch           ...       60
Average number of grid points per atom       ...      586

CP-SCF GRIDX
------------

General Integration Accuracy     IntAcc      ... 3.067
Radial Grid Type                 RadialGrid  ... OptM3 with GC (2021)
Angular Grid (max. ang.)         AngularGrid ... 1 (Lebedev-50)
Angular grid pruning method      GridPruning ... 4 (adaptive)
Weight generation scheme         WeightScheme... Becke
Basis function cutoff            BFCut       ... 1.0000e-10
Integration weight cutoff        WCut        ... 1.0000e-14
Angular grids for H and He will be reduced by one unit
Partially contracted basis set               ... on
Rotationally invariant grid construction     ... off

Total number of grid points                  ...     1074
Total number of batches                      ...       20
Average number of points per batch           ...       53
Average number of grid points per atom       ...      268

Memory available               ... 968.0 MB
Memory needed per perturbation ...   0.4 MB
Perturbations treated per batch... 3
Number of batches              ... 1
     CP-SCF ITERATION   0:   6.8763e-02 (   0.1 sec   0/  3 done)
     CP-SCF ITERATION   1:   2.6143e-03 (   0.1 sec   1/  3 done)
     CP-SCF ITERATION   2:   2.0764e-04 (   0.1 sec   3/  3 done)
                    *** THE CP-SCF HAS CONVERGED ***

Forming final perturbed densities           ... done
Transforming perturbed density to AO basis  ... done

 Raw HFC matrix (all values in MHz): 
 -----------------------------------
               -93.4021              29.5412               1.1308
                29.5407             -38.6369               3.4219
                 1.1308               3.4220             -61.4208

 A(FC)         -64.5021             -64.5021             -64.5021
 A(SD)          39.1047               2.7272             -41.8319
 A(ORB+DIA)      0.0152              -0.0007               0.0319    A(PC) =   0.0155
 A(ORB)          0.0099               0.0005               0.0304    A(PC) =   0.0136
 A(DIA)          0.0053              -0.0012               0.0016    A(PC) =   0.0019
             ----------           ----------           ----------
 A(Tot)        -25.3822             -61.7756            -106.3020    A(iso)=  -64.4866
 Orientation: 
  X           0.3977799           -0.0464635            0.9163036
  Y           0.9121146           -0.0878332           -0.4004151
  Z           0.0990865            0.9950510            0.0074417

Notes:  (1) The A matrix conforms to the "SAI" spin Hamiltonian convention.
        (2) Tensor is right-handed.

 -----------------------------------------------------------
 Nucleus   2H : A:ISTP=    1 I=  0.5 P=533.5514 MHz/au**3
                Q:ISTP=    2 I=  1.0 Q=  0.0029 barn     
 -----------------------------------------------------------
 Solving for nuclear perturbation:
Forming RHS of the CP-SCF equations         ... 
Calc. nucleus orbit integrals (SHARK)       ... done

------------------------------------------------------------------------------
                           ORCA CP-SCF CALCULATION
------------------------------------------------------------------------------

Input orbitals are from        ... /home/rwth0701/scratch/cs681498/orcajob__30556537-62XP/17194.gbw
Input Perturbation             ... /home/rwth0701/scratch/cs681498/orcajob__30556537-62XP/17194.pin.tmp
Wavefunction output            ... /home/rwth0701/scratch/cs681498/orcajob__30556537-62XP/17194.pout.tmp
Perturbation mode              ... Imaginary perturbation
Solver                         ... POPLE
Max. number of iterations      ... 64
Convergence tolerance          ... 1.000e-03
Integral handling              ... Direct
DFT GridXC                     ... 1
COSX GridX                     ... 1
COSX IntAccX                   ... 3.067
COSX Algorithm                 ... Auto
Number of perturbations        ... 3
Number of operators            ... 2
Orbital ranges used for CP-SCF:
 Operator 0:  Orbitals   0...  4  to   5... 72
 Operator 1:  Orbitals   0...  3  to   4... 72
Variables per perturbation     ... 616
DFT calculation                         ... on
XC functional terms                     ... off
Hybrid DFT                              ... on
   Exchange mixing (SCF)                ...  0.200
   Exchange mixing (CP-SCF)             ...  0.200
   GGA exch. scaling(SCF)               ...  0.720
   GGA exch. scaling (CP-SCF)           ...  0.720
   GGA corr. scaling (SCF)              ...  0.810
   GGA corr. scaling (CP-SCF)           ...  0.810

CP-SCF GRID
-----------

General Integration Accuracy     IntAcc      ... 3.467
Radial Grid Type                 RadialGrid  ... OptM3 with GC (2021)
Angular Grid (max. ang.)         AngularGrid ... 1 (Lebedev-50)
Angular grid pruning method      GridPruning ... 4 (adaptive)
Weight generation scheme         WeightScheme... Becke
Basis function cutoff            BFCut       ... 1.0000e-10
Integration weight cutoff        WCut        ... 1.0000e-14
Angular grids for H and He will be reduced by one unit
Partially contracted basis set               ... off
Rotationally invariant grid construction     ... off

Total number of grid points                  ...     2343
Total number of batches                      ...       39
Average number of points per batch           ...       60
Average number of grid points per atom       ...      586

CP-SCF GRIDX
------------

General Integration Accuracy     IntAcc      ... 3.067
Radial Grid Type                 RadialGrid  ... OptM3 with GC (2021)
Angular Grid (max. ang.)         AngularGrid ... 1 (Lebedev-50)
Angular grid pruning method      GridPruning ... 4 (adaptive)
Weight generation scheme         WeightScheme... Becke
Basis function cutoff            BFCut       ... 1.0000e-10
Integration weight cutoff        WCut        ... 1.0000e-14
Angular grids for H and He will be reduced by one unit
Partially contracted basis set               ... on
Rotationally invariant grid construction     ... off

Total number of grid points                  ...     1074
Total number of batches                      ...       20
Average number of points per batch           ...       53
Average number of grid points per atom       ...      268

Memory available               ... 967.8 MB
Memory needed per perturbation ...   0.4 MB
Perturbations treated per batch... 3
Number of batches              ... 1
     CP-SCF ITERATION   0:   6.6226e-02 (   0.1 sec   0/  3 done)
     CP-SCF ITERATION   1:   2.3968e-03 (   0.1 sec   1/  3 done)
     CP-SCF ITERATION   2:   1.5567e-04 (   0.1 sec   3/  3 done)
                    *** THE CP-SCF HAS CONVERGED ***

Forming final perturbed densities           ... done
Transforming perturbed density to AO basis  ... done

 Raw HFC matrix (all values in MHz): 
 -----------------------------------
               -28.2614              13.6615               2.6288
                13.6617            -102.2275              -2.8049
                 2.6288              -2.8049             -62.5874

 A(FC)         -64.3742             -64.3742             -64.3742
 A(SD)          38.6591               1.9141             -40.5732
 A(ORB+DIA)      0.0156              -0.0008               0.0314    A(PC) =   0.0154
 A(ORB)          0.0105               0.0004               0.0299    A(PC) =   0.0136
 A(DIA)          0.0051              -0.0012               0.0015    A(PC) =   0.0018
             ----------           ----------           ----------
 A(Tot)        -25.6995             -62.4609            -104.9160    A(iso)=  -64.3588
 Orientation: 
  X           0.9832018            0.0426204           -0.1774759
  Y           0.1734330            0.0848580            0.9811830
  Z           0.0568787           -0.9954811            0.0760408

Notes:  (1) The A matrix conforms to the "SAI" spin Hamiltonian convention.
        (2) Tensor is right-handed.

 -----------------------------------------------------------
 Nucleus   3H : A:ISTP=    1 I=  0.5 P=533.5514 MHz/au**3
                Q:ISTP=    2 I=  1.0 Q=  0.0029 barn     
 -----------------------------------------------------------
 Solving for nuclear perturbation:
Forming RHS of the CP-SCF equations         ... 
Calc. nucleus orbit integrals (SHARK)       ... done

------------------------------------------------------------------------------
                           ORCA CP-SCF CALCULATION
------------------------------------------------------------------------------

Input orbitals are from        ... /home/rwth0701/scratch/cs681498/orcajob__30556537-62XP/17194.gbw
Input Perturbation             ... /home/rwth0701/scratch/cs681498/orcajob__30556537-62XP/17194.pin.tmp
Wavefunction output            ... /home/rwth0701/scratch/cs681498/orcajob__30556537-62XP/17194.pout.tmp
Perturbation mode              ... Imaginary perturbation
Solver                         ... POPLE
Max. number of iterations      ... 64
Convergence tolerance          ... 1.000e-03
Integral handling              ... Direct
DFT GridXC                     ... 1
COSX GridX                     ... 1
COSX IntAccX                   ... 3.067
COSX Algorithm                 ... Auto
Number of perturbations        ... 3
Number of operators            ... 2
Orbital ranges used for CP-SCF:
 Operator 0:  Orbitals   0...  4  to   5... 72
 Operator 1:  Orbitals   0...  3  to   4... 72
Variables per perturbation     ... 616
DFT calculation                         ... on
XC functional terms                     ... off
Hybrid DFT                              ... on
   Exchange mixing (SCF)                ...  0.200
   Exchange mixing (CP-SCF)             ...  0.200
   GGA exch. scaling(SCF)               ...  0.720
   GGA exch. scaling (CP-SCF)           ...  0.720
   GGA corr. scaling (SCF)              ...  0.810
   GGA corr. scaling (CP-SCF)           ...  0.810

CP-SCF GRID
-----------

General Integration Accuracy     IntAcc      ... 3.467
Radial Grid Type                 RadialGrid  ... OptM3 with GC (2021)
Angular Grid (max. ang.)         AngularGrid ... 1 (Lebedev-50)
Angular grid pruning method      GridPruning ... 4 (adaptive)
Weight generation scheme         WeightScheme... Becke
Basis function cutoff            BFCut       ... 1.0000e-10
Integration weight cutoff        WCut        ... 1.0000e-14
Angular grids for H and He will be reduced by one unit
Partially contracted basis set               ... off
Rotationally invariant grid construction     ... off

Total number of grid points                  ...     2343
Total number of batches                      ...       39
Average number of points per batch           ...       60
Average number of grid points per atom       ...      586

CP-SCF GRIDX
------------

General Integration Accuracy     IntAcc      ... 3.067
Radial Grid Type                 RadialGrid  ... OptM3 with GC (2021)
Angular Grid (max. ang.)         AngularGrid ... 1 (Lebedev-50)
Angular grid pruning method      GridPruning ... 4 (adaptive)
Weight generation scheme         WeightScheme... Becke
Basis function cutoff            BFCut       ... 1.0000e-10
Integration weight cutoff        WCut        ... 1.0000e-14
Angular grids for H and He will be reduced by one unit
Partially contracted basis set               ... on
Rotationally invariant grid construction     ... off

Total number of grid points                  ...     1074
Total number of batches                      ...       20
Average number of points per batch           ...       53
Average number of grid points per atom       ...      268

Memory available               ... 967.7 MB
Memory needed per perturbation ...   0.4 MB
Perturbations treated per batch... 3
Number of batches              ... 1
     CP-SCF ITERATION   0:   6.6254e-02 (   0.1 sec   0/  3 done)
     CP-SCF ITERATION   1:   2.5143e-03 (   0.1 sec   1/  3 done)
     CP-SCF ITERATION   2:   2.1513e-04 (   0.1 sec   3/  3 done)
                    *** THE CP-SCF HAS CONVERGED ***

Forming final perturbed densities           ... done
Transforming perturbed density to AO basis  ... done

 Raw HFC matrix (all values in MHz): 
 -----------------------------------
               -75.5338             -39.5765              -4.1071
               -39.5764             -52.2409              -1.3600
                -4.1071              -1.3600             -58.7389

 A(FC)         -62.1871             -62.1871             -62.1871
 A(SD)          39.5917               3.7568             -43.3485
 A(ORB+DIA)      0.0148              -0.0007               0.0335    A(PC) =   0.0159
 A(ORB)          0.0093               0.0005               0.0318    A(PC) =   0.0139
 A(DIA)          0.0055              -0.0012               0.0017    A(PC) =   0.0020
             ----------           ----------           ----------
 A(Tot)        -22.5805             -58.4309            -105.5021    A(iso)=  -62.1712
 Orientation: 
  X           0.6001183            0.0471753            0.7985190
  Y          -0.7990027            0.0829171            0.5955832
  Z          -0.0381141           -0.9954392            0.0874533

Notes:  (1) The A matrix conforms to the "SAI" spin Hamiltonian convention.
        (2) Tensor is right-handed.

 -----------------------------------------------------------
 Nucleus   0C : A:ISTP=   13 I=  0.5 P=134.1903 MHz/au**3
                Q:ISTP=   13 I=  0.5 Q=  0.0000 barn     
 -----------------------------------------------------------
 Solving for nuclear perturbation:
Forming RHS of the CP-SCF equations         ... 
Calc. nucleus orbit integrals (SHARK)       ... done

------------------------------------------------------------------------------
                           ORCA CP-SCF CALCULATION
------------------------------------------------------------------------------

Input orbitals are from        ... /home/rwth0701/scratch/cs681498/orcajob__30556537-62XP/17194.gbw
Input Perturbation             ... /home/rwth0701/scratch/cs681498/orcajob__30556537-62XP/17194.pin.tmp
Wavefunction output            ... /home/rwth0701/scratch/cs681498/orcajob__30556537-62XP/17194.pout.tmp
Perturbation mode              ... Imaginary perturbation
Solver                         ... POPLE
Max. number of iterations      ... 64
Convergence tolerance          ... 1.000e-03
Integral handling              ... Direct
DFT GridXC                     ... 1
COSX GridX                     ... 1
COSX IntAccX                   ... 3.067
COSX Algorithm                 ... Auto
Number of perturbations        ... 3
Number of operators            ... 2
Orbital ranges used for CP-SCF:
 Operator 0:  Orbitals   0...  4  to   5... 72
 Operator 1:  Orbitals   0...  3  to   4... 72
Variables per perturbation     ... 616
DFT calculation                         ... on
XC functional terms                     ... off
Hybrid DFT                              ... on
   Exchange mixing (SCF)                ...  0.200
   Exchange mixing (CP-SCF)             ...  0.200
   GGA exch. scaling(SCF)               ...  0.720
   GGA exch. scaling (CP-SCF)           ...  0.720
   GGA corr. scaling (SCF)              ...  0.810
   GGA corr. scaling (CP-SCF)           ...  0.810

CP-SCF GRID
-----------

General Integration Accuracy     IntAcc      ... 3.467
Radial Grid Type                 RadialGrid  ... OptM3 with GC (2021)
Angular Grid (max. ang.)         AngularGrid ... 1 (Lebedev-50)
Angular grid pruning method      GridPruning ... 4 (adaptive)
Weight generation scheme         WeightScheme... Becke
Basis function cutoff            BFCut       ... 1.0000e-10
Integration weight cutoff        WCut        ... 1.0000e-14
Angular grids for H and He will be reduced by one unit
Partially contracted basis set               ... off
Rotationally invariant grid construction     ... off

Total number of grid points                  ...     2343
Total number of batches                      ...       39
Average number of points per batch           ...       60
Average number of grid points per atom       ...      586

CP-SCF GRIDX
------------

General Integration Accuracy     IntAcc      ... 3.067
Radial Grid Type                 RadialGrid  ... OptM3 with GC (2021)
Angular Grid (max. ang.)         AngularGrid ... 1 (Lebedev-50)
Angular grid pruning method      GridPruning ... 4 (adaptive)
Weight generation scheme         WeightScheme... Becke
Basis function cutoff            BFCut       ... 1.0000e-10
Integration weight cutoff        WCut        ... 1.0000e-14
Angular grids for H and He will be reduced by one unit
Partially contracted basis set               ... on
Rotationally invariant grid construction     ... off

Total number of grid points                  ...     1074
Total number of batches                      ...       20
Average number of points per batch           ...       53
Average number of grid points per atom       ...      268

Memory available               ... 967.6 MB
Memory needed per perturbation ...   0.4 MB
Perturbations treated per batch... 3
Number of batches              ... 1
     CP-SCF ITERATION   0:   1.0770e+00 (   0.1 sec   0/  3 done)
     CP-SCF ITERATION   1:   3.8732e-02 (   0.1 sec   0/  3 done)
     CP-SCF ITERATION   2:   2.6986e-03 (   0.1 sec   1/  3 done)
     CP-SCF ITERATION   3:   1.0792e-04 (   0.1 sec   3/  3 done)
                    *** THE CP-SCF HAS CONVERGED ***

Forming final perturbed densities           ... done
Transforming perturbed density to AO basis  ... done

 Raw HFC matrix (all values in MHz): 
 -----------------------------------
                -6.9819               0.8843             -10.8548
                 0.8843              -5.9342             -20.4272
               -10.8547             -20.4272             230.6277

 A(FC)          72.6783              72.6783              72.6783
 A(SD)         -79.9890             -80.2171             160.2060
 A(ORB+DIA)     -0.1561              -0.1560              -0.0112    A(PC) =  -0.1078
 A(ORB)         -0.1565              -0.1564              -0.0111    A(PC) =  -0.1080
 A(DIA)          0.0004               0.0004              -0.0001    A(PC) =   0.0003
             ----------           ----------           ----------
 A(Tot)         -7.4668              -7.6948             232.8731    A(iso)=   72.5705
 Orientation: 
  X           0.9776233            0.2054148           -0.0453583
  Y          -0.2086659            0.9742594           -0.0853064
  Z           0.0266675            0.0928623            0.9953218

Notes:  (1) The A matrix conforms to the "SAI" spin Hamiltonian convention.
        (2) Tensor is right-handed.


--------------------------------------------------------------------------------
----------------------------------------------------------------------------
                           ORCA EULER ANGLE PROGRAM
----------------------------------------------------------------------------

Only g-tensor available        -->  using g-tensor as reference tensor

Reference tensor               ...  g

g-tensor ordering              ...  |g_min> --> |gx>
                                    |g_mid> --> |gy>
                                    |g_max> --> |gz>

A- and EFG-tensor ordering     ...  the axes |Ax>, |Qx>, |Ay>, etc. are assigned
                                    such that the Euler rotation is minimal. You
                                    can find the respective eigenvalues as Ax,
                                    EFGx, Ay, etc. in the tables below.
                                    The relation of |Ax>, |Ay>,  etc. to Amin, Amid, etc.
                                    (as printed in the ORCA EPR/NMR CALCULATION Output)
                                    is obtained in the detailed printout.

Euler rotation around          ...  z - y - z
   First rotation              -->  by alpha around z
   Second rotation             -->  by beta around y'
   Third rotation              -->  by gamma around z''
   Positive / Negative angle   -->  clockwise / counterclockwise rotation

Plot EFG-tensors                    (-)
Plot HFC-tensors                    (-)
Detailed Printout                   (-)

-------------------------------------------------------------------------
          Euler rotation of hyperfine tensor to g-tensor
-------------------------------------------------------------------------

-------------------------------------------------------------------
 Atom  |   Alpha    Beta    Gamma   |   Ax       Ay       Az 
       |          [degrees]         |           [MHz]         
-------------------------------------------------------------------
  1H       89.9     25.0    -89.9     -61.78  -106.30   -25.38
  2H      -90.5     31.3     90.5     -62.46  -104.92   -25.70
  3H      -91.5      4.6     91.4     -58.43   -22.58  -105.50
  0C       90.2     36.6    -90.1     232.87    -7.47    -7.69
-------------------------------------------------------------------


Maximum memory used throughout the entire EPRNMR-calculation: 67.6 MB

Timings for individual modules:

Sum of individual times         ...       23.657 sec (=   0.394 min)
GTO integral calculation        ...        4.694 sec (=   0.078 min)  19.8 %
Spin-Orbit-Coupling Matrices    ...        2.838 sec (=   0.047 min)  12.0 %
SCF iterations                  ...        9.164 sec (=   0.153 min)  38.7 %
EPR/NMR calculation             ...        6.960 sec (=   0.116 min)  29.4 %
                             ****ORCA TERMINATED NORMALLY****
TOTAL RUN TIME: 0 days 0 hours 0 minutes 26 seconds 689 msec
