Job execution start: Mon Oct 24 18:42:50 CEST 2022
Shared library path: /home/cs681498/orca:/opt/MPI/openmpi-4.1.1/linux/gcc_4.8.5/lib:/opt/MPI/openmpi-4.1.1/linux/gcc_4.8.5/lib/lib32
Slurm Job ID is: 30556371
Slurm Job name is: 10676
ncm0257

                                 *****************
                                 * O   R   C   A *
                                 *****************

                                            #,                                       
                                            ###                                      
                                            ####                                     
                                            #####                                    
                                            ######                                   
                                           ########,                                 
                                     ,,################,,,,,                         
                               ,,#################################,,                 
                          ,,##########################################,,             
                       ,#########################################, ''#####,          
                    ,#############################################,,   '####,        
                  ,##################################################,,,,####,       
                ,###########''''           ''''###############################       
              ,#####''   ,,,,##########,,,,          '''####'''          '####       
            ,##' ,,,,###########################,,,                        '##       
           ' ,,###''''                  '''############,,,                           
         ,,##''                                '''############,,,,        ,,,,,,###''
      ,#''                                            '''#######################'''  
     '                                                          ''''####''''         
             ,#######,   #######,   ,#######,      ##                                
            ,#'     '#,  ##    ##  ,#'     '#,    #''#        ######   ,####,        
            ##       ##  ##   ,#'  ##            #'  '#       #        #'  '#        
            ##       ##  #######   ##           ,######,      #####,   #    #        
            '#,     ,#'  ##    ##  '#,     ,#' ,#      #,         ##   #,  ,#        
             '#######'   ##     ##  '#######'  #'      '#     #####' # '####'        



                  #######################################################
                  #                        -***-                        #
                  #          Department of theory and spectroscopy      #
                  #    Directorship and core code : Frank Neese         #
                  #        Max Planck Institute fuer Kohlenforschung    #
                  #                Kaiser Wilhelm Platz 1               #
                  #                 D-45470 Muelheim/Ruhr               #
                  #                      Germany                        #
                  #                                                     #
                  #                  All rights reserved                #
                  #                        -***-                        #
                  #######################################################


                         Program Version 5.0.3 -  RELEASE  -


 With contributions from (in alphabetic order):
   Daniel Aravena         : Magnetic Suceptibility
   Michael Atanasov       : Ab Initio Ligand Field Theory (pilot matlab implementation)
   Alexander A. Auer      : GIAO ZORA, VPT2 properties, NMR spectrum
   Ute Becker             : Parallelization
   Giovanni Bistoni       : ED, misc. LED, open-shell LED, HFLD
   Martin Brehm           : Molecular dynamics
   Dmytro Bykov           : SCF Hessian
   Vijay G. Chilkuri      : MRCI spin determinant printing, contributions to CSF-ICE
   Dipayan Datta          : RHF DLPNO-CCSD density
   Achintya Kumar Dutta   : EOM-CC, STEOM-CC
   Dmitry Ganyushin       : Spin-Orbit,Spin-Spin,Magnetic field MRCI
   Miquel Garcia          : C-PCM and meta-GGA Hessian, CC/C-PCM, Gaussian charge scheme
   Yang Guo               : DLPNO-NEVPT2, F12-NEVPT2, CIM, IAO-localization
   Andreas Hansen         : Spin unrestricted coupled pair/coupled cluster methods
   Benjamin Helmich-Paris : MC-RPA, TRAH-SCF, COSX integrals
   Lee Huntington         : MR-EOM, pCC
   Robert Izsak           : Overlap fitted RIJCOSX, COSX-SCS-MP3, EOM
   Marcus Kettner         : VPT2
   Christian Kollmar      : KDIIS, OOCD, Brueckner-CCSD(T), CCSD density, CASPT2, CASPT2-K
   Simone Kossmann        : Meta GGA functionals, TD-DFT gradient, OOMP2, MP2 Hessian
   Martin Krupicka        : Initial AUTO-CI
   Lucas Lang             : DCDCAS
   Marvin Lechner         : AUTO-CI (C++ implementation), FIC-MRCC
   Dagmar Lenk            : GEPOL surface, SMD
   Dimitrios Liakos       : Extrapolation schemes; Compound Job, initial MDCI parallelization
   Dimitrios Manganas     : Further ROCIS development; embedding schemes
   Dimitrios Pantazis     : SARC Basis sets
   Anastasios Papadopoulos: AUTO-CI, single reference methods and gradients
   Taras Petrenko         : DFT Hessian,TD-DFT gradient, ASA, ECA, R-Raman, ABS, FL, XAS/XES, NRVS
   Peter Pinski           : DLPNO-MP2, DLPNO-MP2 Gradient
   Christoph Reimann      : Effective Core Potentials
   Marius Retegan         : Local ZFS, SOC
   Christoph Riplinger    : Optimizer, TS searches, QM/MM, DLPNO-CCSD(T), (RO)-DLPNO pert. Triples
   Tobias Risthaus        : Range-separated hybrids, TD-DFT gradient, RPA, STAB
   Michael Roemelt        : Original ROCIS implementation
   Masaaki Saitow         : Open-shell DLPNO-CCSD energy and density
   Barbara Sandhoefer     : DKH picture change effects
   Avijit Sen             : IP-ROCIS
   Kantharuban Sivalingam : CASSCF convergence, NEVPT2, FIC-MRCI
   Bernardo de Souza      : ESD, SOC TD-DFT
   Georgi Stoychev        : AutoAux, RI-MP2 NMR, DLPNO-MP2 response
   Willem Van den Heuvel  : Paramagnetic NMR
   Boris Wezisla          : Elementary symmetry handling
   Frank Wennmohs         : Technical directorship


 We gratefully acknowledge several colleagues who have allowed us to
 interface, adapt or use parts of their codes:
   Stefan Grimme, W. Hujo, H. Kruse, P. Pracht,  : VdW corrections, initial TS optimization,
                  C. Bannwarth, S. Ehlert          DFT functionals, gCP, sTDA/sTD-DF
   Ed Valeev, F. Pavosevic, A. Kumar             : LibInt (2-el integral package), F12 methods
   Garnet Chan, S. Sharma, J. Yang, R. Olivares  : DMRG
   Ulf Ekstrom                                   : XCFun DFT Library
   Mihaly Kallay                                 : mrcc  (arbitrary order and MRCC methods)
   Jiri Pittner, Ondrej Demel                    : Mk-CCSD
   Frank Weinhold                                : gennbo (NPA and NBO analysis)
   Christopher J. Cramer and Donald G. Truhlar   : smd solvation model
   Lars Goerigk                                  : TD-DFT with DH, B97 family of functionals
   V. Asgeirsson, H. Jonsson                     : NEB implementation
   FAccTs GmbH                                   : IRC, NEB, NEB-TS, DLPNO-Multilevel, CI-OPT
                                                   MM, QMMM, 2- and 3-layer-ONIOM, Crystal-QMMM,
                                                   LR-CPCM, SF, NACMEs, symmetry and pop. for TD-DFT,
                                                   nearIR, NL-DFT gradient (VV10), updates on ESD,
                                                   ML-optimized integration grids
   S Lehtola, MJT Oliveira, MAL Marques          : LibXC Library
   Liviu Ungur et al                             : ANISO software


 Your calculation uses the libint2 library for the computation of 2-el integrals
 For citations please refer to: http://libint.valeyev.net

 Your ORCA version has been built with support for libXC version: 5.1.0
 For citations please refer to: https://tddft.org/programs/libxc/

 This ORCA versions uses:
   CBLAS   interface :  Fast vector & matrix operations
   LAPACKE interface :  Fast linear algebra routines
   SCALAPACK package :  Parallel linear algebra routines
   Shared memory     :  Shared parallel matrices
   BLAS/LAPACK       :  OpenBLAS 0.3.15  USE64BITINT DYNAMIC_ARCH NO_AFFINITY SkylakeX SINGLE_THREADED
        Core in use  :  SkylakeX
   Copyright (c) 2011-2014, The OpenBLAS Project


================================================================================

----- Orbital basis set information -----
Your calculation utilizes the basis: EPR-III
   V. Barone, in Recent Advances in Density Functional Methods, Part 1 (ed. D. P. Chong), World Scientific, Singapore, 1995, p. 287.
   N. Rega, M. Cossi and V. Barone, J. Chem. Phys. 105, 11060 (1996).

----- AuxJ basis set information -----
Your calculation utilizes the AutoAux generation procedure.
  G. L. Stoychev, A. A. Auer, F. Neese, J. Chem. Theory Comput. 13, 554 (2017)

----- AuxC basis set information -----
Your calculation utilizes the AutoAux generation procedure.
  G. L. Stoychev, A. A. Auer, F. Neese, J. Chem. Theory Comput. 13, 554 (2017)

----- AuxJK basis set information -----
Your calculation utilizes the AutoAux generation procedure.
  G. L. Stoychev, A. A. Auer, F. Neese, J. Chem. Theory Comput. 13, 554 (2017)

================================================================================
                                        WARNINGS
                       Please study these warnings very carefully!
================================================================================


WARNING: your system is open-shell and RHF/RKS was chosen
  ===> : WILL SWITCH to UHF/UKS


INFO   : the flag for use of the SHARK integral package has been found!

================================================================================
                                       INPUT FILE
================================================================================
NAME = /home/rwth0701/scratch/cs681498/orcajob__30556371-HDA8/10676.inp
|  1> !B3LYP EPR-III Autoaux
|  2> !PAL4
|  3> 
|  4> * xyz 0 2
|  5>  C    -42.2143482680    -62.5128232902    -21.2105813261
|  6>  H    -41.2656970185    -62.9311444079    -21.2359035836
|  7>  H    -42.4756377692    -61.4706276701    -21.0718640495
|  8>  H    -43.0293516665    -63.1542493232    -21.3683195884
|  9> *
| 10> 
| 11> %EPRNMR
| 12>         GTENSOR   TRUE
| 13>         NUCLEI    = ALL H {AISO, ADIP, AORB}
| 14>         NUCLEI    = ALL C {AISO, ADIP, AORB}
| 15> END
| 16> 
| 17> 
| 18>                          ****END OF INPUT****
================================================================================

                       ****************************
                       * Single Point Calculation *
                       ****************************

---------------------------------
CARTESIAN COORDINATES (ANGSTROEM)
---------------------------------
  C    -42.214348  -62.512823  -21.210581
  H    -41.265697  -62.931144  -21.235904
  H    -42.475638  -61.470628  -21.071864
  H    -43.029352  -63.154249  -21.368320

----------------------------
CARTESIAN COORDINATES (A.U.)
----------------------------
  NO LB      ZA    FRAG     MASS         X           Y           Z
   0 C     6.0000    0    12.011  -79.773557  -118.132116  -40.082190
   1 H     1.0000    0     1.008  -77.980866  -118.922628  -40.130042
   2 H     1.0000    0     1.008  -80.267323  -116.162652  -39.820052
   3 H     1.0000    0     1.008  -81.313690  -119.344235  -40.380272

--------------------------------
INTERNAL COORDINATES (ANGSTROEM)
--------------------------------
 C      0   0   0     0.000000000000     0.00000000     0.00000000
 H      1   0   0     1.037098340282     0.00000000     0.00000000
 H      1   2   0     1.083368080026   127.71745710     0.00000000
 H      1   2   3     1.049065896295   117.40874456   177.73154257

---------------------------
INTERNAL COORDINATES (A.U.)
---------------------------
 C      0   0   0     0.000000000000     0.00000000     0.00000000
 H      1   0   0     1.959831837078     0.00000000     0.00000000
 H      1   2   0     2.047268973482   127.71745710     0.00000000
 H      1   2   3     1.982447240435   117.40874456   177.73154257

---------------------
BASIS SET INFORMATION
---------------------
There are 2 groups of distinct atoms

 Group   1 Type C   : 12s8p2d1f contracted to 8s5p2d1f pattern {51111111/41111/11/1}
 Group   2 Type H   : 7s2p contracted to 5s2p pattern {31111/11}

Atom   0C    basis set group =>   1
Atom   1H    basis set group =>   2
Atom   2H    basis set group =>   2
Atom   3H    basis set group =>   2
---------------------------------
AUXILIARY/J BASIS SET INFORMATION
---------------------------------
There are 2 groups of distinct atoms

 Group   1 Type C   : 20s17p16d8f3g contracted to 20s17p16d8f3g pattern {11111111111111111111/11111111111111111/1111111111111111/11111111/111}
 Group   2 Type H   : 17s7p3d contracted to 17s7p3d pattern {11111111111111111/1111111/111}

Atom   0C    basis set group =>   1
Atom   1H    basis set group =>   2
Atom   2H    basis set group =>   2
Atom   3H    basis set group =>   2
---------------------------------
AUXILIARY/C BASIS SET INFORMATION
---------------------------------
There are 2 groups of distinct atoms

 Group   1 Type C   : 20s17p16d8f3g contracted to 20s17p16d8f3g pattern {11111111111111111111/11111111111111111/1111111111111111/11111111/111}
 Group   2 Type H   : 17s7p3d contracted to 17s7p3d pattern {11111111111111111/1111111/111}

Atom   0C    basis set group =>   1
Atom   1H    basis set group =>   2
Atom   2H    basis set group =>   2
Atom   3H    basis set group =>   2
----------------------------------
AUXILIARY/JK BASIS SET INFORMATION
----------------------------------
There are 2 groups of distinct atoms

 Group   1 Type C   : 20s17p16d8f3g contracted to 20s17p16d8f3g pattern {11111111111111111111/11111111111111111/1111111111111111/11111111/111}
 Group   2 Type H   : 17s7p3d contracted to 17s7p3d pattern {11111111111111111/1111111/111}

Atom   0C    basis set group =>   1
Atom   1H    basis set group =>   2
Atom   2H    basis set group =>   2
Atom   3H    basis set group =>   2


           ************************************************************
           *        Program running with 4 parallel MPI-processes     *
           *              working on a common directory               *
           ************************************************************
------------------------------------------------------------------------------
                           ORCA GTO INTEGRAL CALCULATION
                           -- RI-GTO INTEGRALS CHOSEN --
------------------------------------------------------------------------------
------------------------------------------------------------------------------
                   ___                                                        
                  /   \      - P O W E R E D   B Y -                         
                 /     \                                                     
                 |  |  |   _    _      __       _____    __    __             
                 |  |  |  | |  | |    /  \     |  _  \  |  |  /  |          
                  \  \/   | |  | |   /    \    | | | |  |  | /  /          
                 / \  \   | |__| |  /  /\  \   | |_| |  |  |/  /          
                |  |  |   |  __  | /  /__\  \  |    /   |      \           
                |  |  |   | |  | | |   __   |  |    \   |  |\   \          
                \     /   | |  | | |  |  |  |  | |\  \  |  | \   \       
                 \___/    |_|  |_| |__|  |__|  |_| \__\ |__|  \__/        
                                                                              
                      - O R C A' S   B I G   F R I E N D -                    
                                      &                                       
                       - I N T E G R A L  F E E D E R -                       
                                                                              
 v1 FN, 2020, v2 2021                                                         
------------------------------------------------------------------------------


Reading SHARK input file /home/rwth0701/scratch/cs681498/orcajob__30556371-HDA8/10676.SHARKINP.tmp ... ok
----------------------
SHARK INTEGRAL PACKAGE
----------------------

Number of atoms                             ...      4
Number of basis functions                   ...     73
Number of shells                            ...     37
Maximum angular momentum                    ...      3
Integral batch strategy                     ... SHARK/LIBINT Hybrid
RI-J (if used) integral strategy            ... SPLIT-RIJ (Revised 2003 algorithm where possible)
Printlevel                                  ...      1
Contraction scheme used                     ... SEGMENTED contraction
Coulomb Range Separation                    ... NOT USED
Exchange Range Separation                   ... NOT USED
Finite Nucleus Model                        ... NOT USED
Auxiliary Coulomb fitting basis             ... AVAILABLE
   # of basis functions in Aux-J            ...    393
   # of shells in Aux-J                     ...    145
   Maximum angular momentum in Aux-J        ...      4
Auxiliary J/K fitting basis                 ... AVAILABLE
   # of basis functions in Aux-JK           ...    393
   # of shells in Aux-JK                    ...    145
   Maximum angular momentum in Aux-JK       ...      4
Auxiliary Correlation fitting basis         ... AVAILABLE
   # of basis functions in Aux-C            ...    393
   # of shells in Aux-C                     ...    145
   Maximum angular momentum in Aux-C        ...      4
Auxiliary 'external' fitting basis          ... NOT available
Integral threshold                          ...     1.000000e-10
Primitive cut-off                           ...     1.000000e-11
Primitive pair pre-selection threshold      ...     1.000000e-11

Calculating pre-screening integrals         ... done (  0.0 sec) Dimension = 37
Organizing shell pair data                  ... done (  0.0 sec)
Shell pair information
Total number of shell pairs                 ...       703
Shell pairs after pre-screening             ...       688
Total number of primitive shell pairs       ...      1300
Primitive shell pairs kept                  ...      1183
          la=0 lb=0:    261 shell pairs
          la=1 lb=0:    253 shell pairs
          la=1 lb=1:     66 shell pairs
          la=2 lb=0:     46 shell pairs
          la=2 lb=1:     22 shell pairs
          la=2 lb=2:      3 shell pairs
          la=3 lb=0:     23 shell pairs
          la=3 lb=1:     11 shell pairs
          la=3 lb=2:      2 shell pairs
          la=3 lb=3:      1 shell pairs

Calculating one electron integrals          ... done (  0.0 sec)
Calculating RI/J V-Matrix + Cholesky decomp.... done (  0.1 sec)
Calculating RI/JK V-Matrix + Cholesky decomp... done (  0.1 sec)
Calculating RI/C V-Matrix + Cholesky decomp.... done (  0.1 sec)
Calculating Nuclear repulsion               ... done (  0.0 sec) ENN=      9.888095577059 Eh

SHARK setup successfully completed in   0.5 seconds

Maximum memory used throughout the entire GTOINT-calculation: 13.7 MB


           ************************************************************
           *        Program running with 4 parallel MPI-processes     *
           *              working on a common directory               *
           ************************************************************
-------------------------------------------------------------------------------
                                 ORCA SCF
-------------------------------------------------------------------------------

------------
SCF SETTINGS
------------
Hamiltonian:
 Density Functional     Method          .... DFT(GTOs)
 Exchange Functional    Exchange        .... B88
   X-Alpha parameter    XAlpha          ....  0.666667
   Becke's b parameter  XBeta           ....  0.004200
 Correlation Functional Correlation     .... LYP
 LDA part of GGA corr.  LDAOpt          .... VWN-5
 Gradients option       PostSCFGGA      .... off
 Hybrid DFT is turned on
   Fraction HF Exchange ScalHFX         ....  0.200000
   Scaling of DF-GGA-X  ScalDFX         ....  0.720000
   Scaling of DF-GGA-C  ScalDFC         ....  0.810000
   Scaling of DF-LDA-C  ScalLDAC        ....  1.000000
   Perturbative correction              ....  0.000000
   Density functional embedding theory  .... OFF
   NL short-range parameter             ....  4.800000
 RI-approximation to the Coulomb term is turned on
   Number of AuxJ basis functions       .... 393
   RIJ-COSX (HFX calculated with COS-X)).... on


General Settings:
 Integral files         IntName         .... /home/rwth0701/scratch/cs681498/orcajob__30556371-HDA8/10676
 Hartree-Fock type      HFTyp           .... UHF
 Total Charge           Charge          ....    0
 Multiplicity           Mult            ....    2
 Number of Electrons    NEL             ....    9
 Basis Dimension        Dim             ....   73
 Nuclear Repulsion      ENuc            ....      9.8880955771 Eh

Convergence Acceleration:
 DIIS                   CNVDIIS         .... on
   Start iteration      DIISMaxIt       ....    12
   Startup error        DIISStart       ....  0.200000
   # of expansion vecs  DIISMaxEq       ....     5
   Bias factor          DIISBfac        ....   1.050
   Max. coefficient     DIISMaxC        ....  10.000
 Trust-Rad. Augm. Hess. CNVTRAH         .... auto
   Auto Start mean grad. ratio tolernc. ....  1.125000
   Auto Start start iteration           ....    20
   Auto Start num. interpolation iter.  ....    10
   Max. Number of Micro iterations      ....    16
   Max. Number of Macro iterations      .... Maxiter - #DIIS iter
   Number of Davidson start vectors     ....     2
   Converg. threshold I  (grad. norm)   ....   5.000e-05
   Converg. threshold II (energy diff.) ....   1.000e-06
   Grad. Scal. Fac. for Micro threshold ....   0.100
   Minimum threshold for Micro iter.    ....   0.010
   NR start threshold (gradient norm)   ....   0.001
   Initial trust radius                 ....   0.400
   Minimum AH scaling param. (alpha)    ....   1.000
   Maximum AH scaling param. (alpha)    .... 1000.000
   Orbital update algorithm             .... Taylor
   White noise on init. David. guess    .... on
   Maximum white noise                  ....   0.010
   Quad. conv. algorithm                .... NR
 SOSCF                  CNVSOSCF        .... off
 Level Shifting         CNVShift        .... on
   Level shift para.    LevelShift      ....    0.2500
   Turn off err/grad.   ShiftErr        ....    0.0010
 Zerner damping         CNVZerner       .... off
 Static damping         CNVDamp         .... on
   Fraction old density DampFac         ....    0.7000
   Max. Damping (<1)    DampMax         ....    0.9800
   Min. Damping (>=0)   DampMin         ....    0.0000
   Turn off err/grad.   DampErr         ....    0.1000
 Fernandez-Rico         CNVRico         .... off

SCF Procedure:
 Maximum # iterations   MaxIter         ....   125
 SCF integral mode      SCFMode         .... Direct
   Integral package                     .... SHARK and LIBINT hybrid scheme
 Reset frequency        DirectResetFreq ....    20
 Integral Threshold     Thresh          ....  1.000e-10 Eh
 Primitive CutOff       TCut            ....  1.000e-11 Eh

Convergence Tolerance:
 Convergence Check Mode ConvCheckMode   .... Total+1el-Energy
 Convergence forced     ConvForced      .... 0
 Energy Change          TolE            ....  1.000e-06 Eh
 1-El. energy change                    ....  1.000e-03 Eh
 DIIS Error             TolErr          ....  1.000e-06


Diagonalization of the overlap matrix:
Smallest eigenvalue                        ... 1.472e-03
Time for diagonalization                   ...    0.001 sec
Threshold for overlap eigenvalues          ... 1.000e-08
Number of eigenvalues below threshold      ... 0
Time for construction of square roots      ...    0.024 sec
Total time needed                          ...    0.025 sec

Time for model grid setup =    0.057 sec

------------------------------
INITIAL GUESS: MODEL POTENTIAL
------------------------------
Loading Hartree-Fock densities                     ... done
Calculating cut-offs                               ... done
Initializing the effective Hamiltonian             ... done
Setting up the integral package (SHARK)            ... done
Starting the Coulomb interaction                   ... done (   0.0 sec)
Reading the grid                                   ... done
Mapping shells                                     ... done
Starting the XC term evaluation                    ... done (   0.0 sec)
  promolecular density results
     # of electrons  =      8.998701696
     EX              =     -5.981937057
     EC              =     -0.261193399
     EX+EC           =     -6.243130456
Transforming the Hamiltonian                       ... done (   0.0 sec)
Diagonalizing the Hamiltonian                      ... done (   0.0 sec)
Back transforming the eigenvectors                 ... done (   0.0 sec)
Now organizing SCF variables                       ... done
                      ------------------
                      INITIAL GUESS DONE (   0.1 sec)
                      ------------------
-------------------
DFT GRID GENERATION
-------------------

General Integration Accuracy     IntAcc      ... 4.388
Radial Grid Type                 RadialGrid  ... OptM3 with GC (2021)
Angular Grid (max. ang.)         AngularGrid ... 4 (Lebedev-302)
Angular grid pruning method      GridPruning ... 4 (adaptive)
Weight generation scheme         WeightScheme... Becke
Basis function cutoff            BFCut       ... 1.0000e-10
Integration weight cutoff        WCut        ... 1.0000e-14
Angular grids for H and He will be reduced by one unit
Partially contracted basis set               ... off
Rotationally invariant grid construction     ... off

Total number of grid points                  ...    17040
Total number of batches                      ...      269
Average number of points per batch           ...       63
Average number of grid points per atom       ...     4260
Time for grid setup =    0.151 sec

--------------------
COSX GRID GENERATION
--------------------

GRIDX 1
-------
General Integration Accuracy     IntAcc      ... 3.816
Radial Grid Type                 RadialGrid  ... OptM3 with GC (2021)
Angular Grid (max. ang.)         AngularGrid ... 1 (Lebedev-50)
Angular grid pruning method      GridPruning ... 4 (adaptive)
Weight generation scheme         WeightScheme... Becke
Basis function cutoff            BFCut       ... 1.0000e-10
Integration weight cutoff        WCut        ... 1.0000e-14
Angular grids for H and He will be reduced by one unit
Partially contracted basis set               ... on
Rotationally invariant grid construction     ... off

Total number of grid points                  ...     2148
Total number of batches                      ...       35
Average number of points per batch           ...       61
Average number of grid points per atom       ...      537
UseSFitting                                  ... on

GRIDX 2
-------
General Integration Accuracy     IntAcc      ... 4.020
Radial Grid Type                 RadialGrid  ... OptM3 with GC (2021)
Angular Grid (max. ang.)         AngularGrid ... 2 (Lebedev-110)
Angular grid pruning method      GridPruning ... 4 (adaptive)
Weight generation scheme         WeightScheme... Becke
Basis function cutoff            BFCut       ... 1.0000e-10
Integration weight cutoff        WCut        ... 1.0000e-14
Angular grids for H and He will be reduced by one unit
Partially contracted basis set               ... on
Rotationally invariant grid construction     ... off

Total number of grid points                  ...     5038
Total number of batches                      ...       82
Average number of points per batch           ...       61
Average number of grid points per atom       ...     1260
UseSFitting                                  ... on

GRIDX 3
-------
General Integration Accuracy     IntAcc      ... 4.338
Radial Grid Type                 RadialGrid  ... OptM3 with GC (2021)
Angular Grid (max. ang.)         AngularGrid ... 3 (Lebedev-194)
Angular grid pruning method      GridPruning ... 4 (adaptive)
Weight generation scheme         WeightScheme... Becke
Basis function cutoff            BFCut       ... 1.0000e-10
Integration weight cutoff        WCut        ... 1.0000e-14
Angular grids for H and He will be reduced by one unit
Partially contracted basis set               ... on
Rotationally invariant grid construction     ... off

Total number of grid points                  ...    11709
Total number of batches                      ...      185
Average number of points per batch           ...       63
Average number of grid points per atom       ...     2927
UseSFitting                                  ... on

Time for X-Grid setup             =    0.315 sec

--------------
SCF ITERATIONS
--------------
ITER       Energy         Delta-E        Max-DP      RMS-DP      [F,P]     Damp
               ***  Starting incremental Fock matrix formation  ***
  0    -39.7788765101   0.000000000000 0.01636697  0.00052357  0.0967019 0.7000
  1    -39.7997146176  -0.020838107509 0.01027824  0.00038898  0.0508105 0.7000
                               ***Turning on DIIS***
  2    -39.8090461299  -0.009331512214 0.01664821  0.00067920  0.0208518 0.0000
  3    -39.8218145271  -0.012768397263 0.00887192  0.00029065  0.0295031 0.0000
  4    -39.8255890166  -0.003774489463 0.00310309  0.00008132  0.0060856 0.0000
  5    -39.8257439559  -0.000154939283 0.00108908  0.00003260  0.0019697 0.0000
  6    -39.8257610809  -0.000017125069 0.00088014  0.00002425  0.0008155 0.0000
               *** Restarting incremental Fock matrix formation ***
                                   *** Resetting DIIS ***
  7    -39.8257625627  -0.000001481800 0.00007388  0.00000282  0.0000898 0.0000
                 **** Energy Check signals convergence ****

               *****************************************************
               *                     SUCCESS                       *
               *           SCF CONVERGED AFTER   8 CYCLES          *
               *****************************************************

Old exchange energy                            =     -1.246786440 Eh
New exchange energy                            =     -1.246789843 Eh
Exchange energy change after final integration =     -0.000003403 Eh
Total energy after final integration           =    -39.825766033 Eh
Final COS-X integration done in                =     0.175 sec

----------------
TOTAL SCF ENERGY
----------------

Total Energy       :          -39.82576603 Eh           -1083.71419 eV

Components:
Nuclear Repulsion  :            9.88809558 Eh             269.06876 eV
Electronic Energy  :          -49.71386161 Eh           -1352.78295 eV
One Electron Energy:          -72.04285701 Eh           -1960.38580 eV
Two Electron Energy:           22.32899540 Eh             607.60285 eV
Max COSX asymmetry :            0.00000007 Eh               0.00000 eV

Virial components:
Potential Energy   :          -79.55110305 Eh           -2164.69556 eV
Kinetic Energy     :           39.72533701 Eh            1080.98138 eV
Virial Ratio       :            2.00252808


DFT components:
N(Alpha)           :        4.999999102792 electrons
N(Beta)            :        3.999999935220 electrons
N(Total)           :        8.999999038012 electrons
E(X)               :       -4.932834375405 Eh       
E(C)               :       -0.310860513113 Eh       
E(XC)              :       -5.243694888518 Eh       
DFET-embed. en.    :        0.000000000000 Eh       

---------------
SCF CONVERGENCE
---------------

  Last Energy change         ...   -6.7269e-08  Tolerance :   1.0000e-06
  Last MAX-Density change    ...    0.0000e+00  Tolerance :   1.0000e-05
  Last RMS-Density change    ...    0.0000e+00  Tolerance :   1.0000e-06
  Last DIIS Error            ...    6.9030e-05  Tolerance :   1.0000e-06

             **** THE GBW FILE WAS UPDATED (/home/rwth0701/scratch/cs681498/orcajob__30556371-HDA8/10676.gbw) ****
             **** DENSITY /home/rwth0701/scratch/cs681498/orcajob__30556371-HDA8/10676.scfp WAS UPDATED ****
             **** ENERGY FILE WAS UPDATED (/home/rwth0701/scratch/cs681498/orcajob__30556371-HDA8/10676.en.tmp) ****
----------------------
UHF SPIN CONTAMINATION
----------------------

Warning: in a DFT calculation there is little theoretical justification to 
         calculate <S**2> as in Hartree-Fock theory. We will do it anyways
         but you should keep in mind that the values have only limited relevance

Expectation value of <S**2>     :     0.753406
Ideal value S*(S+1) for S=0.5   :     0.750000
Deviation                       :     0.003406

             **** THE GBW FILE WAS UPDATED (/home/rwth0701/scratch/cs681498/orcajob__30556371-HDA8/10676.gbw) ****
             **** DENSITY /home/rwth0701/scratch/cs681498/orcajob__30556371-HDA8/10676.scfp WAS UPDATED ****
----------------
ORBITAL ENERGIES
----------------
                 SPIN UP ORBITALS
  NO   OCC          E(Eh)            E(eV) 
   0   1.0000     -10.176834      -276.9257 
   1   1.0000      -0.694457       -18.8971 
   2   1.0000      -0.439041       -11.9469 
   3   1.0000      -0.416545       -11.3348 
   4   1.0000      -0.234664        -6.3855 
   5   0.0000       0.001656         0.0451 
   6   0.0000       0.035565         0.9678 
   7   0.0000       0.038035         1.0350 
   8   0.0000       0.047611         1.2956 
   9   0.0000       0.089055         2.4233 
  10   0.0000       0.098546         2.6816 
  11   0.0000       0.099575         2.7096 
  12   0.0000       0.219852         5.9825 
  13   0.0000       0.224684         6.1140 
  14   0.0000       0.247481         6.7343 
  15   0.0000       0.276630         7.5275 
  16   0.0000       0.305390         8.3101 
  17   0.0000       0.325961         8.8699 
  18   0.0000       0.354266         9.6401 
  19   0.0000       0.555418        15.1137 
  20   0.0000       0.570054        15.5120 
  21   0.0000       0.733231        19.9522 
  22   0.0000       0.745101        20.2752 
  23   0.0000       0.763840        20.7852 
  24   0.0000       0.844014        22.9668 
  25   0.0000       0.904590        24.6152 
  26   0.0000       0.910199        24.7678 
  27   0.0000       0.946379        25.7523 
  28   0.0000       0.971841        26.4451 
  29   0.0000       1.057365        28.7724 
  30   0.0000       1.078279        29.3415 
  31   0.0000       1.120469        30.4895 
  32   0.0000       1.168734        31.8029 
  33   0.0000       1.173310        31.9274 
  34   0.0000       1.467120        39.9224 
  35   0.0000       1.496966        40.7345 
  36   0.0000       1.528727        41.5988 
  37   0.0000       1.720677        46.8220 
  38   0.0000       1.749955        47.6187 
  39   0.0000       1.772779        48.2398 
  40   0.0000       2.709412        73.7268 
  41   0.0000       2.722790        74.0909 
  42   0.0000       2.885727        78.5246 
  43   0.0000       2.902644        78.9850 
  44   0.0000       2.941152        80.0328 
  45   0.0000       2.954302        80.3906 
  46   0.0000       3.000328        81.6431 
  47   0.0000       3.161786        86.0366 
  48   0.0000       3.181084        86.5617 
  49   0.0000       3.242392        88.2300 
  50   0.0000       3.248122        88.3859 
  51   0.0000       3.713141       101.0397 
  52   0.0000       3.743938       101.8777 
  53   0.0000       3.882382       105.6450 
  54   0.0000       3.976060       108.1941 
  55   0.0000       4.004014       108.9548 
  56   0.0000       4.103591       111.6644 
  57   0.0000       4.183441       113.8372 
  58   0.0000       4.192873       114.0939 
  59   0.0000       4.213568       114.6570 
  60   0.0000       4.727665       128.6463 
  61   0.0000       5.010002       136.3291 
  62   0.0000       5.442126       148.0878 
  63   0.0000       5.492822       149.4673 
  64   0.0000       5.613345       152.7469 
  65   0.0000       6.129395       166.7893 
  66   0.0000       6.201532       168.7523 
  67   0.0000       7.839795       213.3317 
  68   0.0000      29.128949       792.6390 
  69   0.0000      37.188229      1011.9432 
  70   0.0000      37.225448      1012.9559 
  71   0.0000      37.251927      1013.6765 
  72   0.0000     133.599499      3635.4272 

                 SPIN DOWN ORBITALS
  NO   OCC          E(Eh)            E(eV) 
   0   1.0000     -10.162538      -276.5367 
   1   1.0000      -0.655294       -17.8315 
   2   1.0000      -0.429466       -11.6864 
   3   1.0000      -0.406655       -11.0657 
   4   0.0000      -0.077545        -2.1101 
   5   0.0000       0.004592         0.1250 
   6   0.0000       0.035167         0.9570 
   7   0.0000       0.037581         1.0226 
   8   0.0000       0.060804         1.6545 
   9   0.0000       0.090597         2.4653 
  10   0.0000       0.099333         2.7030 
  11   0.0000       0.103129         2.8063 
  12   0.0000       0.221112         6.0168 
  13   0.0000       0.225956         6.1486 
  14   0.0000       0.267553         7.2805 
  15   0.0000       0.310666         8.4536 
  16   0.0000       0.311013         8.4631 
  17   0.0000       0.330292         8.9877 
  18   0.0000       0.368179        10.0187 
  19   0.0000       0.582723        15.8567 
  20   0.0000       0.598305        16.2807 
  21   0.0000       0.735213        20.0062 
  22   0.0000       0.746318        20.3083 
  23   0.0000       0.791037        21.5252 
  24   0.0000       0.842846        22.9350 
  25   0.0000       0.908525        24.7222 
  26   0.0000       0.915632        24.9156 
  27   0.0000       0.963076        26.2066 
  28   0.0000       0.992106        26.9966 
  29   0.0000       1.091974        29.7141 
  30   0.0000       1.123823        30.5808 
  31   0.0000       1.142353        31.0850 
  32   0.0000       1.182106        32.1667 
  33   0.0000       1.185340        32.2547 
  34   0.0000       1.481240        40.3066 
  35   0.0000       1.514326        41.2069 
  36   0.0000       1.536517        41.8108 
  37   0.0000       1.723598        46.9015 
  38   0.0000       1.759220        47.8708 
  39   0.0000       1.780831        48.4589 
  40   0.0000       2.750223        74.8374 
  41   0.0000       2.763462        75.1976 
  42   0.0000       2.894130        78.7533 
  43   0.0000       2.931588        79.7726 
  44   0.0000       2.959842        80.5414 
  45   0.0000       2.987626        81.2974 
  46   0.0000       3.053297        83.0844 
  47   0.0000       3.211223        87.3818 
  48   0.0000       3.230615        87.9095 
  49   0.0000       3.298587        89.7591 
  50   0.0000       3.305544        89.9484 
  51   0.0000       3.744647       101.8970 
  52   0.0000       3.775116       102.7261 
  53   0.0000       3.881473       105.6202 
  54   0.0000       3.977827       108.2422 
  55   0.0000       4.019849       109.3856 
  56   0.0000       4.121410       112.1493 
  57   0.0000       4.196272       114.1864 
  58   0.0000       4.208490       114.5188 
  59   0.0000       4.217288       114.7582 
  60   0.0000       4.728226       128.6616 
  61   0.0000       5.032718       136.9472 
  62   0.0000       5.440564       148.0453 
  63   0.0000       5.491110       149.4207 
  64   0.0000       5.611190       152.6883 
  65   0.0000       6.133299       166.8955 
  66   0.0000       6.205588       168.8626 
  67   0.0000       7.875635       214.3069 
  68   0.0000      29.155816       793.3701 
  69   0.0000      37.176637      1011.6277 
  70   0.0000      37.214363      1012.6543 
  71   0.0000      37.240773      1013.3730 
  72   0.0000     133.607291      3635.6392 

                    ********************************
                    * MULLIKEN POPULATION ANALYSIS *
                    ********************************

--------------------------------------------
MULLIKEN ATOMIC CHARGES AND SPIN POPULATIONS
--------------------------------------------
   0 C :   -0.428865    1.099045
   1 H :    0.148175   -0.031305
   2 H :    0.143091   -0.034700
   3 H :    0.137598   -0.033040
Sum of atomic charges         :   -0.0000000
Sum of atomic spin populations:    1.0000000

-----------------------------------------------------
MULLIKEN REDUCED ORBITAL CHARGES AND SPIN POPULATIONS
-----------------------------------------------------
CHARGE
  0 C s       :     3.317068  s :     3.317068
      pz      :     0.969471  p :     3.085191
      px      :     1.061760
      py      :     1.053960
      dz2     :     0.005417  d :     0.023410
      dxz     :     0.000405
      dyz     :     0.000537
      dx2y2   :     0.006867
      dxy     :     0.010185
      f0      :     0.000120  f :     0.003195
      f+1     :     0.000694
      f-1     :     0.000603
      f+2     :     0.000060
      f-2     :     0.000088
      f+3     :     0.000381
      f-3     :     0.001248
  1 H s       :     0.823130  s :     0.823130
      pz      :     0.011465  p :     0.028695
      px      :     0.009524
      py      :     0.007705
  2 H s       :     0.830258  s :     0.830258
      pz      :     0.010565  p :     0.026650
      px      :     0.006494
      py      :     0.009592
  3 H s       :     0.835237  s :     0.835237
      pz      :     0.010779  p :     0.027164
      px      :     0.008493
      py      :     0.007893

SPIN
  0 C s       :     0.066944  s :     0.066944
      pz      :     0.941400  p :     1.036484
      px      :     0.036841
      py      :     0.058243
      dz2     :    -0.004383  d :    -0.003011
      dxz     :    -0.000004
      dyz     :    -0.000298
      dx2y2   :     0.000620
      dxy     :     0.001054
      f0      :    -0.000088  f :    -0.001372
      f+1     :    -0.000609
      f-1     :    -0.000531
      f+2     :    -0.000033
      f-2     :    -0.000048
      f+3     :    -0.000013
      f-3     :    -0.000050
  1 H s       :    -0.042538  s :    -0.042538
      pz      :     0.011257  p :     0.011232
      px      :    -0.000142
      py      :     0.000117
  2 H s       :    -0.044941  s :    -0.044941
      pz      :     0.010347  p :     0.010241
      px      :    -0.000204
      py      :     0.000098
  3 H s       :    -0.043190  s :    -0.043190
      pz      :     0.010496  p :     0.010151
      px      :    -0.000236
      py      :    -0.000109


                     *******************************
                     * LOEWDIN POPULATION ANALYSIS *
                     *******************************

-------------------------------------------
LOEWDIN ATOMIC CHARGES AND SPIN POPULATIONS
-------------------------------------------
   0 C :   -0.128262    0.896721
   1 H :    0.033351    0.037575
   2 H :    0.056863    0.029767
   3 H :    0.038047    0.035937

----------------------------------------------------
LOEWDIN REDUCED ORBITAL CHARGES AND SPIN POPULATIONS
----------------------------------------------------
CHARGE
  0 C s       :     2.862513  s :     2.862513
      pz      :     0.871751  p :     3.165769
      px      :     1.154793
      py      :     1.139225
      dz2     :     0.007047  d :     0.092055
      dxz     :     0.001591
      dyz     :     0.001312
      dx2y2   :     0.036043
      dxy     :     0.046063
      f0      :     0.000479  f :     0.007924
      f+1     :     0.001849
      f-1     :     0.001683
      f+2     :     0.000122
      f-2     :     0.000272
      f+3     :     0.000885
      f-3     :     0.002633
  1 H s       :     0.808621  s :     0.808621
      pz      :     0.047449  p :     0.158028
      px      :     0.068134
      py      :     0.042446
  2 H s       :     0.800451  s :     0.800451
      pz      :     0.042244  p :     0.142685
      px      :     0.033384
      py      :     0.067057
  3 H s       :     0.806825  s :     0.806825
      pz      :     0.046848  p :     0.155128
      px      :     0.057974
      py      :     0.050305

SPIN
  0 C s       :     0.018012  s :     0.018012
      pz      :     0.840595  p :     0.887383
      px      :     0.013887
      py      :     0.032901
      dz2     :    -0.003869  d :    -0.007379
      dxz     :    -0.000091
      dyz     :    -0.000306
      dx2y2   :    -0.001348
      dxy     :    -0.001765
      f0      :     0.000094  f :    -0.001295
      f+1     :    -0.000540
      f-1     :    -0.000456
      f+2     :    -0.000030
      f-2     :    -0.000054
      f+3     :    -0.000075
      f-3     :    -0.000235
  1 H s       :    -0.015343  s :    -0.015343
      pz      :     0.046423  p :     0.052918
      px      :     0.003940
      py      :     0.002555
  2 H s       :    -0.017091  s :    -0.017091
      pz      :     0.040863  p :     0.046858
      px      :     0.000890
      py      :     0.005105
  3 H s       :    -0.015075  s :    -0.015075
      pz      :     0.045056  p :     0.051012
      px      :     0.002913
      py      :     0.003043


                      *****************************
                      * MAYER POPULATION ANALYSIS *
                      *****************************

  NA   - Mulliken gross atomic population
  ZA   - Total nuclear charge
  QA   - Mulliken gross atomic charge
  VA   - Mayer's total valence
  BVA  - Mayer's bonded valence
  FA   - Mayer's free valence

  ATOM       NA         ZA         QA         VA         BVA        FA
  0 C      6.4289     6.0000    -0.4289     3.8850     2.9423     0.9427
  1 H      0.8518     1.0000     0.1482     0.9869     0.9851     0.0018
  2 H      0.8569     1.0000     0.1431     0.9861     0.9841     0.0020
  3 H      0.8624     1.0000     0.1376     0.9817     0.9799     0.0018

  Mayer bond orders larger than 0.100000
B(  0-C ,  1-H ) :   0.9806 B(  0-C ,  2-H ) :   0.9804 B(  0-C ,  3-H ) :   0.9814 


-------
TIMINGS
-------

Total SCF time: 0 days 0 hours 0 min 6 sec 

Total time                  ....       6.179 sec
Sum of individual times     ....       5.202 sec  ( 84.2%)

Fock matrix formation       ....       4.429 sec  ( 71.7%)
  Split-RI-J                ....       0.420 sec  (  9.5% of F)
  Chain of spheres X        ....       0.883 sec  ( 19.9% of F)
  XC integration            ....       1.914 sec  ( 43.2% of F)
    Basis function eval.    ....       0.109 sec  (  5.7% of XC)
    Density eval.           ....       0.109 sec  (  5.7% of XC)
    XC-Functional eval.     ....       0.104 sec  (  5.4% of XC)
    XC-Potential eval.      ....       0.157 sec  (  8.2% of XC)
Diagonalization             ....       0.045 sec  (  0.7%)
Density matrix formation    ....       0.002 sec  (  0.0%)
Population analysis         ....       0.068 sec  (  1.1%)
Initial guess               ....       0.044 sec  (  0.7%)
Orbital Transformation      ....       0.000 sec  (  0.0%)
Orbital Orthonormalization  ....       0.000 sec  (  0.0%)
DIIS solution               ....       0.092 sec  (  1.5%)
Grid generation             ....       0.523 sec  (  8.5%)

Maximum memory used throughout the entire SCF-calculation: 59.0 MB

-------------------------   --------------------
FINAL SINGLE POINT ENERGY       -39.825766032849
-------------------------   --------------------

   --->>> g-tensor requested, so NeedSOC=true

                            ***************************************
                            *     ORCA property calculations      *
                            ***************************************

                                    ---------------------
                                    Active property flags
                                    ---------------------
   (+) Dipole Moment
   (+) g-tensor
   (+) Nuclear properties (Hyperfine,Quadrupole)
   (+) Spin-Orbit Integrals are needed


------------------------------------------------------------------------------
                       ORCA ELECTRIC PROPERTIES CALCULATION
------------------------------------------------------------------------------

Dipole Moment Calculation                       ... on
Quadrupole Moment Calculation                   ... off
Polarizability Calculation                      ... off
GBWName                                         ... /home/rwth0701/scratch/cs681498/orcajob__30556371-HDA8/10676.gbw
Electron density                                ... /home/rwth0701/scratch/cs681498/orcajob__30556371-HDA8/10676.scfp
The origin for moment calculation is the CENTER OF MASS  = (-79.789729, -118.134340 -40.087808)

-------------
DIPOLE MOMENT
-------------
                                X             Y             Z
Electronic contribution:      0.08456       0.00476       0.02124
Nuclear contribution   :     -0.09566      -0.01315      -0.03323
                        -----------------------------------------
Total Dipole Moment    :     -0.01110      -0.00839      -0.01199
                        -----------------------------------------
Magnitude (a.u.)       :      0.01837
Magnitude (Debye)      :      0.04670



--------------------
Rotational spectrum 
--------------------
 
Rotational constants in cm-1:    10.895918     9.219382     4.994811 
Rotational constants in MHz : 326651.413087 276390.117101 149740.661332 

 Dipole components along the rotational axes: 
x,y,z [a.u.] :     0.001058    -0.015438    -0.009906 
x,y,z [Debye]:     0.002688    -0.039240    -0.025180 

 


           ************************************************************
           *        Program running with 4 parallel MPI-processes     *
           *              working on a common directory               *
           ************************************************************
------------------------------------------------------------------------------
                         ORCA SPIN-ORBIT COUPLING CALCULATION
------------------------------------------------------------------------------

GBW file                                    ... /home/rwth0701/scratch/cs681498/orcajob__30556371-HDA8/10676.gbw
Input density                               ... /home/rwth0701/scratch/cs681498/orcajob__30556371-HDA8/10676.scfp
Output integrals                            ... /home/rwth0701/scratch/cs681498/orcajob__30556371-HDA8/10676
Operator type                               ... Mean-field/Effective potential
   One-Electron Terms                       ... 1
   Coulomb Contribution                     ... 3
   Exchange Contribution                    ... 3
   Correlation Contribution                 ... 0
   Maximum number of centers                ... 4
SHARK 2-electron RIJ-SOMF                   ... done (  0.1 sec)
SHARK 1-electron  MaxCenter=4               ... done (  0.0 sec)
SHARK 2-electron DoJ,X=0,1 MaxCenter=1      ... done (  0.1 sec)

Maximum memory used throughout the entire SOC-calculation: 11.3 MB
Total time for SOC:  2.103


           ************************************************************
           *        Program running with 4 parallel MPI-processes     *
           *              working on a common directory               *
           ************************************************************
------------------------------------------------------------------------------
                                ORCA EPR/NMR CALCULATION
------------------------------------------------------------------------------

GBWName                      ... /home/rwth0701/scratch/cs681498/orcajob__30556371-HDA8/10676.gbw
Electron density             ... /home/rwth0701/scratch/cs681498/orcajob__30556371-HDA8/10676.scfp
Spin density                 ... /home/rwth0701/scratch/cs681498/orcajob__30556371-HDA8/10676.scfr
Spin-orbit integrals         ... /home/rwth0701/scratch/cs681498/orcajob__30556371-HDA8/10676
Treatment of gauge           ... GIAO (approximations 1/2el = 0,0)
Details of the CP(SCF) procedure:
       Solver   = POPLE   
       MaxIter  =    64   
       Tolerance=    1.000e-03
       COSX Grid=     1   
       Op-0     =   0-  4 =>   5- 72
       Op-1     =   0-  3 =>   4- 72
Multiplicity                 ... 2
g-tensor                     ... 1
NMR chemical shifts          ... 0
NMR spin-spin couplings      ... 0
NMR spectrum                 ... 0
Number of nuclei for epr/nmr ... 4
   Nucleus:   1H 
       Hyperfine : Isotope=    1 I=   0.500 P= 533.551
       Quadrupole: Isotope=    2 I=   1.000 Q=   0.003
       Spin-Orbit: Zeff=   1.000
       Nuclear Spin-Spin: Gn=   0.000
       EPRNMR Input: 
       rho(0)=N f(grad)=N a(iso)=Y a(dip)=Y a(orb)=Y sigma(nmr)=N spin-spin(nmr)=all-N,DSO-N,PSO-N,FC-N,SD-N
   Nucleus:   2H 
       Hyperfine : Isotope=    1 I=   0.500 P= 533.551
       Quadrupole: Isotope=    2 I=   1.000 Q=   0.003
       Spin-Orbit: Zeff=   1.000
       Nuclear Spin-Spin: Gn=   0.000
       EPRNMR Input: 
       rho(0)=N f(grad)=N a(iso)=Y a(dip)=Y a(orb)=Y sigma(nmr)=N spin-spin(nmr)=all-N,DSO-N,PSO-N,FC-N,SD-N
   Nucleus:   3H 
       Hyperfine : Isotope=    1 I=   0.500 P= 533.551
       Quadrupole: Isotope=    2 I=   1.000 Q=   0.003
       Spin-Orbit: Zeff=   1.000
       Nuclear Spin-Spin: Gn=   0.000
       EPRNMR Input: 
       rho(0)=N f(grad)=N a(iso)=Y a(dip)=Y a(orb)=Y sigma(nmr)=N spin-spin(nmr)=all-N,DSO-N,PSO-N,FC-N,SD-N
   Nucleus:   0C 
       Hyperfine : Isotope=   13 I=   0.500 P= 134.190
       Quadrupole: Isotope=   13 I=   0.500 Q=   0.000
       Spin-Orbit: Zeff=   3.600
       Nuclear Spin-Spin: Gn=   0.000
       EPRNMR Input: 
       rho(0)=N f(grad)=N a(iso)=Y a(dip)=Y a(orb)=Y sigma(nmr)=N spin-spin(nmr)=all-N,DSO-N,PSO-N,FC-N,SD-N
Forming RHS of the CP-SCF equations         ... 
Calculating right hand sides for GIAO treatment        ... 
  Entering RightHandSide GIAO. ScalHFX=    0.2000 NeedHFX=1
     -> 1-electron GIAO integrals will be done analytically
     -> RIJCOSX used in SCF. Same chosen for GIAO calculation.
     Making grid for GIAO integrations   ...

GRID GIAO
---------

General Integration Accuracy     IntAcc      ... 4.388
Radial Grid Type                 RadialGrid  ... OptM3 with GC (2021)
Angular Grid (max. ang.)         AngularGrid ... 4 (Lebedev-302)
Angular grid pruning method      GridPruning ... 4 (adaptive)
Weight generation scheme         WeightScheme... Becke
Basis function cutoff            BFCut       ... 1.0000e-10
Integration weight cutoff        WCut        ... 1.0000e-14
Angular grids for H and He will be reduced by one unit
Partially contracted basis set               ... off
Rotationally invariant grid construction     ... off

Total number of grid points                  ...    17040
Total number of batches                      ...      269
Average number of points per batch           ...       63
Average number of grid points per atom       ...     4260

  One-electron GIAO integrals (SHARK)     ... done
  Calculating G(B)[P]                     ... (RI-J: SHARK-ok) (COSX-ok) (add-J+K:ok) => dG/dB done
  DFT XC-terms                            ... done
  Extracting occupied and virtual blocks  ... 
  Operator  0  NO=   5 NV=  68 
  Operator  1  NO=   4 NV=  69 
  Transforming and RHS contribution       ... done
  Adding eps_i * S(B)_ai terms            ... done
  Projecting overlap derivatives          ... done
  Building G[dS/dB_ij] (COSX)             ... done
  Transforming to MO basis                ... done
  Summing G[dS/dB_ij] into RHS contribs.  ... done

  GIAO profiling information: 
    Total GIAO time               ...       0.8 sec
       GIAO 1-electron integrals  ...       0.0 sec (  0.4%)
       GIAO G(dS/dB) terms        ...       0.1 sec ( 13.1%)
       GIAO RI-J                  ...       0.1 sec ( 13.2%)
       GIAO COSX                  ...       0.1 sec ( 18.1%)
       GIAO XC-terms              ...       0.3 sec ( 35.6%)

  GIAO right hand side done


------------------------------------------------------------------------------
                           ORCA CP-SCF CALCULATION
------------------------------------------------------------------------------

Input orbitals are from        ... /home/rwth0701/scratch/cs681498/orcajob__30556371-HDA8/10676.gbw
Input Perturbation             ... /home/rwth0701/scratch/cs681498/orcajob__30556371-HDA8/10676.pin.tmp
Wavefunction output            ... /home/rwth0701/scratch/cs681498/orcajob__30556371-HDA8/10676.pout.tmp
Perturbation mode              ... Imaginary perturbation
Solver                         ... POPLE
Max. number of iterations      ... 64
Convergence tolerance          ... 1.000e-03
Integral handling              ... Direct
DFT GridXC                     ... 1
COSX GridX                     ... 1
COSX IntAccX                   ... 3.067
COSX Algorithm                 ... Auto
Number of perturbations        ... 3
Number of operators            ... 2
Orbital ranges used for CP-SCF:
 Operator 0:  Orbitals   0...  4  to   5... 72
 Operator 1:  Orbitals   0...  3  to   4... 72
Variables per perturbation     ... 616
DFT calculation                         ... on
XC functional terms                     ... off
Hybrid DFT                              ... on
   Exchange mixing (SCF)                ...  0.200
   Exchange mixing (CP-SCF)             ...  0.200
   GGA exch. scaling(SCF)               ...  0.720
   GGA exch. scaling (CP-SCF)           ...  0.720
   GGA corr. scaling (SCF)              ...  0.810
   GGA corr. scaling (CP-SCF)           ...  0.810

CP-SCF GRID
-----------

General Integration Accuracy     IntAcc      ... 3.467
Radial Grid Type                 RadialGrid  ... OptM3 with GC (2021)
Angular Grid (max. ang.)         AngularGrid ... 1 (Lebedev-50)
Angular grid pruning method      GridPruning ... 4 (adaptive)
Weight generation scheme         WeightScheme... Becke
Basis function cutoff            BFCut       ... 1.0000e-10
Integration weight cutoff        WCut        ... 1.0000e-14
Angular grids for H and He will be reduced by one unit
Partially contracted basis set               ... off
Rotationally invariant grid construction     ... off

Total number of grid points                  ...     2342
Total number of batches                      ...       38
Average number of points per batch           ...       61
Average number of grid points per atom       ...      586

CP-SCF GRIDX
------------

General Integration Accuracy     IntAcc      ... 3.067
Radial Grid Type                 RadialGrid  ... OptM3 with GC (2021)
Angular Grid (max. ang.)         AngularGrid ... 1 (Lebedev-50)
Angular grid pruning method      GridPruning ... 4 (adaptive)
Weight generation scheme         WeightScheme... Becke
Basis function cutoff            BFCut       ... 1.0000e-10
Integration weight cutoff        WCut        ... 1.0000e-14
Angular grids for H and He will be reduced by one unit
Partially contracted basis set               ... on
Rotationally invariant grid construction     ... off

Total number of grid points                  ...     1074
Total number of batches                      ...       20
Average number of points per batch           ...       53
Average number of grid points per atom       ...      268

Memory available               ... 1014.6 MB
Memory needed per perturbation ...   0.4 MB
Perturbations treated per batch... 3
Number of batches              ... 1
     CP-SCF ITERATION   0:   5.9511e+00 (   0.1 sec   0/  3 done)
     CP-SCF ITERATION   1:   4.4890e-02 (   0.1 sec   0/  3 done)
     CP-SCF ITERATION   2:   2.6173e-03 (   0.1 sec   0/  3 done)
     CP-SCF ITERATION   3:   2.1808e-04 (   0.1 sec   3/  3 done)
                    *** THE CP-SCF HAS CONVERGED ***

Forming final perturbed densities           ... done
Transforming perturbed density to AO basis  ... done

Magnetic field perturbation calculated in  1.331 sec
GIAO: Diamagnetic terms      (analytic)     (SHARK) ... done
GIAO: 1el-Paramagnetic terms (analytic)     (SHARK) ... done

-------------------
ELECTRONIC G-MATRIX
-------------------

 The g-matrix: 
              2.0029115   -0.0000232    0.0000330
             -0.0000192    2.0029108    0.0001048
              0.0000238    0.0000928    2.0022541

 gel          2.0023193    2.0023193    2.0023193
 gRMC        -0.0001260   -0.0001260   -0.0001260
 gDSO(tot)    0.0000342    0.0000710    0.0000712
 gPSO(tot)    0.0000106    0.0006369    0.0006726
             ----------   ----------   ----------
 g(tot)       2.0022381    2.0029012    2.0029371 iso=  2.0026921
 Delta-g     -0.0000812    0.0005819    0.0006178 iso=  0.0003728
 Orientation: 
  X          -0.0463169    0.8199078   -0.5706189
  Y          -0.1466167    0.5594657    0.8157828
  Z           0.9881084    0.1214468    0.0942995

Notes:  (1) The g-matrix conforms to the "BgS" spin Hamiltonian convention. 
        (2) The principal values are square roots of the eigenvalues of g*gT.
        (3) Orientations are eigenvectors of g*gT written as column vectors.
        (4) Individual contributions are projections of the full matrices onto the eigenvectors of g*gT.
        (5) Tensor is right-handed.


-----------------------------------------
ELECTRIC AND MAGNETIC HYPERFINE STRUCTURE
-----------------------------------------

 -----------------------------------------------------------
 Nucleus   1H : A:ISTP=    1 I=  0.5 P=533.5514 MHz/au**3
                Q:ISTP=    2 I=  1.0 Q=  0.0029 barn     
 -----------------------------------------------------------
 Solving for nuclear perturbation:
Forming RHS of the CP-SCF equations         ... 
Calc. nucleus orbit integrals (SHARK)       ... done

------------------------------------------------------------------------------
                           ORCA CP-SCF CALCULATION
------------------------------------------------------------------------------

Input orbitals are from        ... /home/rwth0701/scratch/cs681498/orcajob__30556371-HDA8/10676.gbw
Input Perturbation             ... /home/rwth0701/scratch/cs681498/orcajob__30556371-HDA8/10676.pin.tmp
Wavefunction output            ... /home/rwth0701/scratch/cs681498/orcajob__30556371-HDA8/10676.pout.tmp
Perturbation mode              ... Imaginary perturbation
Solver                         ... POPLE
Max. number of iterations      ... 64
Convergence tolerance          ... 1.000e-03
Integral handling              ... Direct
DFT GridXC                     ... 1
COSX GridX                     ... 1
COSX IntAccX                   ... 3.067
COSX Algorithm                 ... Auto
Number of perturbations        ... 3
Number of operators            ... 2
Orbital ranges used for CP-SCF:
 Operator 0:  Orbitals   0...  4  to   5... 72
 Operator 1:  Orbitals   0...  3  to   4... 72
Variables per perturbation     ... 616
DFT calculation                         ... on
XC functional terms                     ... off
Hybrid DFT                              ... on
   Exchange mixing (SCF)                ...  0.200
   Exchange mixing (CP-SCF)             ...  0.200
   GGA exch. scaling(SCF)               ...  0.720
   GGA exch. scaling (CP-SCF)           ...  0.720
   GGA corr. scaling (SCF)              ...  0.810
   GGA corr. scaling (CP-SCF)           ...  0.810

CP-SCF GRID
-----------

General Integration Accuracy     IntAcc      ... 3.467
Radial Grid Type                 RadialGrid  ... OptM3 with GC (2021)
Angular Grid (max. ang.)         AngularGrid ... 1 (Lebedev-50)
Angular grid pruning method      GridPruning ... 4 (adaptive)
Weight generation scheme         WeightScheme... Becke
Basis function cutoff            BFCut       ... 1.0000e-10
Integration weight cutoff        WCut        ... 1.0000e-14
Angular grids for H and He will be reduced by one unit
Partially contracted basis set               ... off
Rotationally invariant grid construction     ... off

Total number of grid points                  ...     2342
Total number of batches                      ...       38
Average number of points per batch           ...       61
Average number of grid points per atom       ...      586

CP-SCF GRIDX
------------

General Integration Accuracy     IntAcc      ... 3.067
Radial Grid Type                 RadialGrid  ... OptM3 with GC (2021)
Angular Grid (max. ang.)         AngularGrid ... 1 (Lebedev-50)
Angular grid pruning method      GridPruning ... 4 (adaptive)
Weight generation scheme         WeightScheme... Becke
Basis function cutoff            BFCut       ... 1.0000e-10
Integration weight cutoff        WCut        ... 1.0000e-14
Angular grids for H and He will be reduced by one unit
Partially contracted basis set               ... on
Rotationally invariant grid construction     ... off

Total number of grid points                  ...     1074
Total number of batches                      ...       20
Average number of points per batch           ...       53
Average number of grid points per atom       ...      268

Memory available               ... 968.0 MB
Memory needed per perturbation ...   0.4 MB
Perturbations treated per batch... 3
Number of batches              ... 1
     CP-SCF ITERATION   0:   7.3582e-02 (   0.1 sec   0/  3 done)
     CP-SCF ITERATION   1:   2.8317e-03 (   0.1 sec   1/  3 done)
     CP-SCF ITERATION   2:   2.2276e-04 (   0.1 sec   3/  3 done)
                    *** THE CP-SCF HAS CONVERGED ***

Forming final perturbed densities           ... done
Transforming perturbed density to AO basis  ... done

 Raw HFC matrix (all values in MHz): 
 -----------------------------------
               -38.4110             -30.1420              -3.9318
               -30.1426             -93.0099              -6.5188
                -3.9319              -6.5188             -62.3077

 A(FC)         -64.5917             -64.5917             -64.5917
 A(SD)          39.5585               3.5188             -43.0773
 A(ORB+DIA)      0.0146              -0.0007               0.0325    A(PC) =   0.0155
 A(ORB)          0.0092               0.0005               0.0309    A(PC) =   0.0135
 A(DIA)          0.0055              -0.0012               0.0016    A(PC) =   0.0020
             ----------           ----------           ----------
 A(Tot)        -25.0186             -61.0736            -107.6364    A(iso)=  -64.5762
 Orientation: 
  X           0.9148039            0.0428432            0.4016197
  Y          -0.4030609            0.1608357            0.9009294
  Z          -0.0259961           -0.9860509            0.1644016

Notes:  (1) The A matrix conforms to the "SAI" spin Hamiltonian convention.
        (2) Tensor is right-handed.

 -----------------------------------------------------------
 Nucleus   2H : A:ISTP=    1 I=  0.5 P=533.5514 MHz/au**3
                Q:ISTP=    2 I=  1.0 Q=  0.0029 barn     
 -----------------------------------------------------------
 Solving for nuclear perturbation:
Forming RHS of the CP-SCF equations         ... 
Calc. nucleus orbit integrals (SHARK)       ... done

------------------------------------------------------------------------------
                           ORCA CP-SCF CALCULATION
------------------------------------------------------------------------------

Input orbitals are from        ... /home/rwth0701/scratch/cs681498/orcajob__30556371-HDA8/10676.gbw
Input Perturbation             ... /home/rwth0701/scratch/cs681498/orcajob__30556371-HDA8/10676.pin.tmp
Wavefunction output            ... /home/rwth0701/scratch/cs681498/orcajob__30556371-HDA8/10676.pout.tmp
Perturbation mode              ... Imaginary perturbation
Solver                         ... POPLE
Max. number of iterations      ... 64
Convergence tolerance          ... 1.000e-03
Integral handling              ... Direct
DFT GridXC                     ... 1
COSX GridX                     ... 1
COSX IntAccX                   ... 3.067
COSX Algorithm                 ... Auto
Number of perturbations        ... 3
Number of operators            ... 2
Orbital ranges used for CP-SCF:
 Operator 0:  Orbitals   0...  4  to   5... 72
 Operator 1:  Orbitals   0...  3  to   4... 72
Variables per perturbation     ... 616
DFT calculation                         ... on
XC functional terms                     ... off
Hybrid DFT                              ... on
   Exchange mixing (SCF)                ...  0.200
   Exchange mixing (CP-SCF)             ...  0.200
   GGA exch. scaling(SCF)               ...  0.720
   GGA exch. scaling (CP-SCF)           ...  0.720
   GGA corr. scaling (SCF)              ...  0.810
   GGA corr. scaling (CP-SCF)           ...  0.810

CP-SCF GRID
-----------

General Integration Accuracy     IntAcc      ... 3.467
Radial Grid Type                 RadialGrid  ... OptM3 with GC (2021)
Angular Grid (max. ang.)         AngularGrid ... 1 (Lebedev-50)
Angular grid pruning method      GridPruning ... 4 (adaptive)
Weight generation scheme         WeightScheme... Becke
Basis function cutoff            BFCut       ... 1.0000e-10
Integration weight cutoff        WCut        ... 1.0000e-14
Angular grids for H and He will be reduced by one unit
Partially contracted basis set               ... off
Rotationally invariant grid construction     ... off

Total number of grid points                  ...     2342
Total number of batches                      ...       38
Average number of points per batch           ...       61
Average number of grid points per atom       ...      586

CP-SCF GRIDX
------------

General Integration Accuracy     IntAcc      ... 3.067
Radial Grid Type                 RadialGrid  ... OptM3 with GC (2021)
Angular Grid (max. ang.)         AngularGrid ... 1 (Lebedev-50)
Angular grid pruning method      GridPruning ... 4 (adaptive)
Weight generation scheme         WeightScheme... Becke
Basis function cutoff            BFCut       ... 1.0000e-10
Integration weight cutoff        WCut        ... 1.0000e-14
Angular grids for H and He will be reduced by one unit
Partially contracted basis set               ... on
Rotationally invariant grid construction     ... off

Total number of grid points                  ...     1074
Total number of batches                      ...       20
Average number of points per batch           ...       53
Average number of grid points per atom       ...      268

Memory available               ... 967.8 MB
Memory needed per perturbation ...   0.4 MB
Perturbations treated per batch... 3
Number of batches              ... 1
     CP-SCF ITERATION   0:   6.4983e-02 (   0.1 sec   0/  3 done)
     CP-SCF ITERATION   1:   2.4683e-03 (   0.1 sec   0/  3 done)
     CP-SCF ITERATION   2:   1.6993e-04 (   0.1 sec   3/  3 done)
                    *** THE CP-SCF HAS CONVERGED ***

Forming final perturbed densities           ... done
Transforming perturbed density to AO basis  ... done

 Raw HFC matrix (all values in MHz): 
 -----------------------------------
              -100.4236             -17.7266              -4.6547
               -17.7270             -32.3764               3.6757
                -4.6548               3.6757             -64.3270

 A(FC)         -65.7241             -65.7241             -65.7241
 A(SD)          38.2690               1.1305             -39.3995
 A(ORB+DIA)      0.0156              -0.0008               0.0305    A(PC) =   0.0151
 A(ORB)          0.0107               0.0004               0.0291    A(PC) =   0.0134
 A(DIA)          0.0049              -0.0012               0.0014    A(PC) =   0.0017
             ----------           ----------           ----------
 A(Tot)        -27.4395             -64.5944            -105.0932    A(iso)=  -65.7090
 Orientation: 
  X          -0.2417330           -0.0570514            0.9686642
  Y           0.9620788           -0.1440990            0.2316026
  Z           0.1263703            0.9879173            0.0897214

Notes:  (1) The A matrix conforms to the "SAI" spin Hamiltonian convention.
        (2) Tensor is right-handed.

 -----------------------------------------------------------
 Nucleus   3H : A:ISTP=    1 I=  0.5 P=533.5514 MHz/au**3
                Q:ISTP=    2 I=  1.0 Q=  0.0029 barn     
 -----------------------------------------------------------
 Solving for nuclear perturbation:
Forming RHS of the CP-SCF equations         ... 
Calc. nucleus orbit integrals (SHARK)       ... done

------------------------------------------------------------------------------
                           ORCA CP-SCF CALCULATION
------------------------------------------------------------------------------

Input orbitals are from        ... /home/rwth0701/scratch/cs681498/orcajob__30556371-HDA8/10676.gbw
Input Perturbation             ... /home/rwth0701/scratch/cs681498/orcajob__30556371-HDA8/10676.pin.tmp
Wavefunction output            ... /home/rwth0701/scratch/cs681498/orcajob__30556371-HDA8/10676.pout.tmp
Perturbation mode              ... Imaginary perturbation
Solver                         ... POPLE
Max. number of iterations      ... 64
Convergence tolerance          ... 1.000e-03
Integral handling              ... Direct
DFT GridXC                     ... 1
COSX GridX                     ... 1
COSX IntAccX                   ... 3.067
COSX Algorithm                 ... Auto
Number of perturbations        ... 3
Number of operators            ... 2
Orbital ranges used for CP-SCF:
 Operator 0:  Orbitals   0...  4  to   5... 72
 Operator 1:  Orbitals   0...  3  to   4... 72
Variables per perturbation     ... 616
DFT calculation                         ... on
XC functional terms                     ... off
Hybrid DFT                              ... on
   Exchange mixing (SCF)                ...  0.200
   Exchange mixing (CP-SCF)             ...  0.200
   GGA exch. scaling(SCF)               ...  0.720
   GGA exch. scaling (CP-SCF)           ...  0.720
   GGA corr. scaling (SCF)              ...  0.810
   GGA corr. scaling (CP-SCF)           ...  0.810

CP-SCF GRID
-----------

General Integration Accuracy     IntAcc      ... 3.467
Radial Grid Type                 RadialGrid  ... OptM3 with GC (2021)
Angular Grid (max. ang.)         AngularGrid ... 1 (Lebedev-50)
Angular grid pruning method      GridPruning ... 4 (adaptive)
Weight generation scheme         WeightScheme... Becke
Basis function cutoff            BFCut       ... 1.0000e-10
Integration weight cutoff        WCut        ... 1.0000e-14
Angular grids for H and He will be reduced by one unit
Partially contracted basis set               ... off
Rotationally invariant grid construction     ... off

Total number of grid points                  ...     2342
Total number of batches                      ...       38
Average number of points per batch           ...       61
Average number of grid points per atom       ...      586

CP-SCF GRIDX
------------

General Integration Accuracy     IntAcc      ... 3.067
Radial Grid Type                 RadialGrid  ... OptM3 with GC (2021)
Angular Grid (max. ang.)         AngularGrid ... 1 (Lebedev-50)
Angular grid pruning method      GridPruning ... 4 (adaptive)
Weight generation scheme         WeightScheme... Becke
Basis function cutoff            BFCut       ... 1.0000e-10
Integration weight cutoff        WCut        ... 1.0000e-14
Angular grids for H and He will be reduced by one unit
Partially contracted basis set               ... on
Rotationally invariant grid construction     ... off

Total number of grid points                  ...     1074
Total number of batches                      ...       20
Average number of points per batch           ...       53
Average number of grid points per atom       ...      268

Memory available               ... 967.7 MB
Memory needed per perturbation ...   0.4 MB
Perturbations treated per batch... 3
Number of batches              ... 1
     CP-SCF ITERATION   0:   6.3429e-02 (   0.1 sec   0/  3 done)
     CP-SCF ITERATION   1:   2.3257e-03 (   0.1 sec   0/  3 done)
     CP-SCF ITERATION   2:   2.0281e-04 (   0.1 sec   3/  3 done)
                    *** THE CP-SCF HAS CONVERGED ***

Forming final perturbed densities           ... done
Transforming perturbed density to AO basis  ... done

 Raw HFC matrix (all values in MHz): 
 -----------------------------------
               -54.4733              39.0967               6.8076
                39.0972             -72.2668               0.3183
                 6.8077               0.3182             -58.2489

 A(FC)         -61.6787             -61.6787             -61.6787
 A(SD)          39.2452               2.9292             -42.1744
 A(ORB+DIA)      0.0149              -0.0007               0.0331    A(PC) =   0.0157
 A(ORB)          0.0095               0.0005               0.0315    A(PC) =   0.0138
 A(DIA)          0.0053              -0.0012               0.0016    A(PC) =   0.0019
             ----------           ----------           ----------
 A(Tot)        -22.4187             -58.7503            -103.8201    A(iso)=  -61.6630
 Orientation: 
  X          -0.7771034           -0.0648129           -0.6260268
  Y          -0.6104749           -0.1642955            0.7748080
  Z          -0.1530709            0.9842796            0.0881080

Notes:  (1) The A matrix conforms to the "SAI" spin Hamiltonian convention.
        (2) Tensor is right-handed.

 -----------------------------------------------------------
 Nucleus   0C : A:ISTP=   13 I=  0.5 P=134.1903 MHz/au**3
                Q:ISTP=   13 I=  0.5 Q=  0.0000 barn     
 -----------------------------------------------------------
 Solving for nuclear perturbation:
Forming RHS of the CP-SCF equations         ... 
Calc. nucleus orbit integrals (SHARK)       ... done

------------------------------------------------------------------------------
                           ORCA CP-SCF CALCULATION
------------------------------------------------------------------------------

Input orbitals are from        ... /home/rwth0701/scratch/cs681498/orcajob__30556371-HDA8/10676.gbw
Input Perturbation             ... /home/rwth0701/scratch/cs681498/orcajob__30556371-HDA8/10676.pin.tmp
Wavefunction output            ... /home/rwth0701/scratch/cs681498/orcajob__30556371-HDA8/10676.pout.tmp
Perturbation mode              ... Imaginary perturbation
Solver                         ... POPLE
Max. number of iterations      ... 64
Convergence tolerance          ... 1.000e-03
Integral handling              ... Direct
DFT GridXC                     ... 1
COSX GridX                     ... 1
COSX IntAccX                   ... 3.067
COSX Algorithm                 ... Auto
Number of perturbations        ... 3
Number of operators            ... 2
Orbital ranges used for CP-SCF:
 Operator 0:  Orbitals   0...  4  to   5... 72
 Operator 1:  Orbitals   0...  3  to   4... 72
Variables per perturbation     ... 616
DFT calculation                         ... on
XC functional terms                     ... off
Hybrid DFT                              ... on
   Exchange mixing (SCF)                ...  0.200
   Exchange mixing (CP-SCF)             ...  0.200
   GGA exch. scaling(SCF)               ...  0.720
   GGA exch. scaling (CP-SCF)           ...  0.720
   GGA corr. scaling (SCF)              ...  0.810
   GGA corr. scaling (CP-SCF)           ...  0.810

CP-SCF GRID
-----------

General Integration Accuracy     IntAcc      ... 3.467
Radial Grid Type                 RadialGrid  ... OptM3 with GC (2021)
Angular Grid (max. ang.)         AngularGrid ... 1 (Lebedev-50)
Angular grid pruning method      GridPruning ... 4 (adaptive)
Weight generation scheme         WeightScheme... Becke
Basis function cutoff            BFCut       ... 1.0000e-10
Integration weight cutoff        WCut        ... 1.0000e-14
Angular grids for H and He will be reduced by one unit
Partially contracted basis set               ... off
Rotationally invariant grid construction     ... off

Total number of grid points                  ...     2342
Total number of batches                      ...       38
Average number of points per batch           ...       61
Average number of grid points per atom       ...      586

CP-SCF GRIDX
------------

General Integration Accuracy     IntAcc      ... 3.067
Radial Grid Type                 RadialGrid  ... OptM3 with GC (2021)
Angular Grid (max. ang.)         AngularGrid ... 1 (Lebedev-50)
Angular grid pruning method      GridPruning ... 4 (adaptive)
Weight generation scheme         WeightScheme... Becke
Basis function cutoff            BFCut       ... 1.0000e-10
Integration weight cutoff        WCut        ... 1.0000e-14
Angular grids for H and He will be reduced by one unit
Partially contracted basis set               ... on
Rotationally invariant grid construction     ... off

Total number of grid points                  ...     1074
Total number of batches                      ...       20
Average number of points per batch           ...       53
Average number of grid points per atom       ...      268

Memory available               ... 967.6 MB
Memory needed per perturbation ...   0.4 MB
Perturbations treated per batch... 3
Number of batches              ... 1
     CP-SCF ITERATION   0:   1.0889e+00 (   0.1 sec   0/  3 done)
     CP-SCF ITERATION   1:   3.9586e-02 (   0.1 sec   0/  3 done)
     CP-SCF ITERATION   2:   2.8666e-03 (   0.1 sec   0/  3 done)
     CP-SCF ITERATION   3:   1.5110e-04 (   0.1 sec   3/  3 done)
                    *** THE CP-SCF HAS CONVERGED ***

Forming final perturbed densities           ... done
Transforming perturbed density to AO basis  ... done

 Raw HFC matrix (all values in MHz): 
 -----------------------------------
                -5.1501               2.2771             -12.8802
                 2.2771               0.3372             -36.9516
               -12.8802             -36.9516             228.3374

 A(FC)          74.6170              74.6170              74.6170
 A(SD)         -79.8423             -80.4412             160.2835
 A(ORB+DIA)     -0.1581              -0.1570              -0.0114    A(PC) =  -0.1088
 A(ORB)         -0.1585              -0.1575              -0.0113    A(PC) =  -0.1091
 A(DIA)          0.0004               0.0004              -0.0001    A(PC) =   0.0003
             ----------           ----------           ----------
 A(Tot)         -5.3833              -5.9812             234.8891    A(iso)=   74.5082
 Orientation: 
  X           0.4447715            0.8939904            0.0544013
  Y           0.8805519           -0.4475729            0.1559067
  Z           0.1637276           -0.0214397           -0.9862726

Notes:  (1) The A matrix conforms to the "SAI" spin Hamiltonian convention.
        (2) Tensor is right-handed.


--------------------------------------------------------------------------------
----------------------------------------------------------------------------
                           ORCA EULER ANGLE PROGRAM
----------------------------------------------------------------------------

Only g-tensor available        -->  using g-tensor as reference tensor

Reference tensor               ...  g

g-tensor ordering              ...  |g_min> --> |gx>
                                    |g_mid> --> |gy>
                                    |g_max> --> |gz>

A- and EFG-tensor ordering     ...  the axes |Ax>, |Qx>, |Ay>, etc. are assigned
                                    such that the Euler rotation is minimal. You
                                    can find the respective eigenvalues as Ax,
                                    EFGx, Ay, etc. in the tables below.
                                    The relation of |Ax>, |Ay>,  etc. to Amin, Amid, etc.
                                    (as printed in the ORCA EPR/NMR CALCULATION Output)
                                    is obtained in the detailed printout.

Euler rotation around          ...  z - y - z
   First rotation              -->  by alpha around z
   Second rotation             -->  by beta around y'
   Third rotation              -->  by gamma around z''
   Positive / Negative angle   -->  clockwise / counterclockwise rotation

Plot EFG-tensors                    (-)
Plot HFC-tensors                    (-)
Detailed Printout                   (-)

-------------------------------------------------------------------------
          Euler rotation of hyperfine tensor to g-tensor
-------------------------------------------------------------------------

-------------------------------------------------------------------
 Atom  |   Alpha    Beta    Gamma   |   Ax       Ay       Az 
       |          [degrees]         |           [MHz]         
-------------------------------------------------------------------
  1H       91.5     31.4    -91.0     -61.07  -107.64   -25.02
  2H      -88.7     20.8     89.2     -64.59  -105.09   -27.44
  3H       93.5      4.0    -92.0     -58.75   -22.42  -103.82
  0C       90.4     28.7    -89.6     234.89    -5.38    -5.98
-------------------------------------------------------------------


Maximum memory used throughout the entire EPRNMR-calculation: 67.6 MB

Timings for individual modules:

Sum of individual times         ...       18.843 sec (=   0.314 min)
GTO integral calculation        ...        2.412 sec (=   0.040 min)  12.8 %
Spin-Orbit-Coupling Matrices    ...        2.093 sec (=   0.035 min)  11.1 %
SCF iterations                  ...        8.067 sec (=   0.134 min)  42.8 %
EPR/NMR calculation             ...        6.271 sec (=   0.105 min)  33.3 %
                             ****ORCA TERMINATED NORMALLY****
TOTAL RUN TIME: 0 days 0 hours 0 minutes 21 seconds 84 msec
