Job execution start: Mon Oct 24 23:42:52 CEST 2022
Shared library path: /home/cs681498/orca:/opt/MPI/openmpi-4.1.1/linux/gcc_4.8.5/lib:/opt/MPI/openmpi-4.1.1/linux/gcc_4.8.5/lib/lib32
Slurm Job ID is: 30556523
Slurm Job name is: 16608
ncm0207

                                 *****************
                                 * O   R   C   A *
                                 *****************

                                            #,                                       
                                            ###                                      
                                            ####                                     
                                            #####                                    
                                            ######                                   
                                           ########,                                 
                                     ,,################,,,,,                         
                               ,,#################################,,                 
                          ,,##########################################,,             
                       ,#########################################, ''#####,          
                    ,#############################################,,   '####,        
                  ,##################################################,,,,####,       
                ,###########''''           ''''###############################       
              ,#####''   ,,,,##########,,,,          '''####'''          '####       
            ,##' ,,,,###########################,,,                        '##       
           ' ,,###''''                  '''############,,,                           
         ,,##''                                '''############,,,,        ,,,,,,###''
      ,#''                                            '''#######################'''  
     '                                                          ''''####''''         
             ,#######,   #######,   ,#######,      ##                                
            ,#'     '#,  ##    ##  ,#'     '#,    #''#        ######   ,####,        
            ##       ##  ##   ,#'  ##            #'  '#       #        #'  '#        
            ##       ##  #######   ##           ,######,      #####,   #    #        
            '#,     ,#'  ##    ##  '#,     ,#' ,#      #,         ##   #,  ,#        
             '#######'   ##     ##  '#######'  #'      '#     #####' # '####'        



                  #######################################################
                  #                        -***-                        #
                  #          Department of theory and spectroscopy      #
                  #    Directorship and core code : Frank Neese         #
                  #        Max Planck Institute fuer Kohlenforschung    #
                  #                Kaiser Wilhelm Platz 1               #
                  #                 D-45470 Muelheim/Ruhr               #
                  #                      Germany                        #
                  #                                                     #
                  #                  All rights reserved                #
                  #                        -***-                        #
                  #######################################################


                         Program Version 5.0.3 -  RELEASE  -


 With contributions from (in alphabetic order):
   Daniel Aravena         : Magnetic Suceptibility
   Michael Atanasov       : Ab Initio Ligand Field Theory (pilot matlab implementation)
   Alexander A. Auer      : GIAO ZORA, VPT2 properties, NMR spectrum
   Ute Becker             : Parallelization
   Giovanni Bistoni       : ED, misc. LED, open-shell LED, HFLD
   Martin Brehm           : Molecular dynamics
   Dmytro Bykov           : SCF Hessian
   Vijay G. Chilkuri      : MRCI spin determinant printing, contributions to CSF-ICE
   Dipayan Datta          : RHF DLPNO-CCSD density
   Achintya Kumar Dutta   : EOM-CC, STEOM-CC
   Dmitry Ganyushin       : Spin-Orbit,Spin-Spin,Magnetic field MRCI
   Miquel Garcia          : C-PCM and meta-GGA Hessian, CC/C-PCM, Gaussian charge scheme
   Yang Guo               : DLPNO-NEVPT2, F12-NEVPT2, CIM, IAO-localization
   Andreas Hansen         : Spin unrestricted coupled pair/coupled cluster methods
   Benjamin Helmich-Paris : MC-RPA, TRAH-SCF, COSX integrals
   Lee Huntington         : MR-EOM, pCC
   Robert Izsak           : Overlap fitted RIJCOSX, COSX-SCS-MP3, EOM
   Marcus Kettner         : VPT2
   Christian Kollmar      : KDIIS, OOCD, Brueckner-CCSD(T), CCSD density, CASPT2, CASPT2-K
   Simone Kossmann        : Meta GGA functionals, TD-DFT gradient, OOMP2, MP2 Hessian
   Martin Krupicka        : Initial AUTO-CI
   Lucas Lang             : DCDCAS
   Marvin Lechner         : AUTO-CI (C++ implementation), FIC-MRCC
   Dagmar Lenk            : GEPOL surface, SMD
   Dimitrios Liakos       : Extrapolation schemes; Compound Job, initial MDCI parallelization
   Dimitrios Manganas     : Further ROCIS development; embedding schemes
   Dimitrios Pantazis     : SARC Basis sets
   Anastasios Papadopoulos: AUTO-CI, single reference methods and gradients
   Taras Petrenko         : DFT Hessian,TD-DFT gradient, ASA, ECA, R-Raman, ABS, FL, XAS/XES, NRVS
   Peter Pinski           : DLPNO-MP2, DLPNO-MP2 Gradient
   Christoph Reimann      : Effective Core Potentials
   Marius Retegan         : Local ZFS, SOC
   Christoph Riplinger    : Optimizer, TS searches, QM/MM, DLPNO-CCSD(T), (RO)-DLPNO pert. Triples
   Tobias Risthaus        : Range-separated hybrids, TD-DFT gradient, RPA, STAB
   Michael Roemelt        : Original ROCIS implementation
   Masaaki Saitow         : Open-shell DLPNO-CCSD energy and density
   Barbara Sandhoefer     : DKH picture change effects
   Avijit Sen             : IP-ROCIS
   Kantharuban Sivalingam : CASSCF convergence, NEVPT2, FIC-MRCI
   Bernardo de Souza      : ESD, SOC TD-DFT
   Georgi Stoychev        : AutoAux, RI-MP2 NMR, DLPNO-MP2 response
   Willem Van den Heuvel  : Paramagnetic NMR
   Boris Wezisla          : Elementary symmetry handling
   Frank Wennmohs         : Technical directorship


 We gratefully acknowledge several colleagues who have allowed us to
 interface, adapt or use parts of their codes:
   Stefan Grimme, W. Hujo, H. Kruse, P. Pracht,  : VdW corrections, initial TS optimization,
                  C. Bannwarth, S. Ehlert          DFT functionals, gCP, sTDA/sTD-DF
   Ed Valeev, F. Pavosevic, A. Kumar             : LibInt (2-el integral package), F12 methods
   Garnet Chan, S. Sharma, J. Yang, R. Olivares  : DMRG
   Ulf Ekstrom                                   : XCFun DFT Library
   Mihaly Kallay                                 : mrcc  (arbitrary order and MRCC methods)
   Jiri Pittner, Ondrej Demel                    : Mk-CCSD
   Frank Weinhold                                : gennbo (NPA and NBO analysis)
   Christopher J. Cramer and Donald G. Truhlar   : smd solvation model
   Lars Goerigk                                  : TD-DFT with DH, B97 family of functionals
   V. Asgeirsson, H. Jonsson                     : NEB implementation
   FAccTs GmbH                                   : IRC, NEB, NEB-TS, DLPNO-Multilevel, CI-OPT
                                                   MM, QMMM, 2- and 3-layer-ONIOM, Crystal-QMMM,
                                                   LR-CPCM, SF, NACMEs, symmetry and pop. for TD-DFT,
                                                   nearIR, NL-DFT gradient (VV10), updates on ESD,
                                                   ML-optimized integration grids
   S Lehtola, MJT Oliveira, MAL Marques          : LibXC Library
   Liviu Ungur et al                             : ANISO software


 Your calculation uses the libint2 library for the computation of 2-el integrals
 For citations please refer to: http://libint.valeyev.net

 Your ORCA version has been built with support for libXC version: 5.1.0
 For citations please refer to: https://tddft.org/programs/libxc/

 This ORCA versions uses:
   CBLAS   interface :  Fast vector & matrix operations
   LAPACKE interface :  Fast linear algebra routines
   SCALAPACK package :  Parallel linear algebra routines
   Shared memory     :  Shared parallel matrices
   BLAS/LAPACK       :  OpenBLAS 0.3.15  USE64BITINT DYNAMIC_ARCH NO_AFFINITY SkylakeX SINGLE_THREADED
        Core in use  :  SkylakeX
   Copyright (c) 2011-2014, The OpenBLAS Project


================================================================================

----- Orbital basis set information -----
Your calculation utilizes the basis: EPR-III
   V. Barone, in Recent Advances in Density Functional Methods, Part 1 (ed. D. P. Chong), World Scientific, Singapore, 1995, p. 287.
   N. Rega, M. Cossi and V. Barone, J. Chem. Phys. 105, 11060 (1996).

----- AuxJ basis set information -----
Your calculation utilizes the AutoAux generation procedure.
  G. L. Stoychev, A. A. Auer, F. Neese, J. Chem. Theory Comput. 13, 554 (2017)

----- AuxC basis set information -----
Your calculation utilizes the AutoAux generation procedure.
  G. L. Stoychev, A. A. Auer, F. Neese, J. Chem. Theory Comput. 13, 554 (2017)

----- AuxJK basis set information -----
Your calculation utilizes the AutoAux generation procedure.
  G. L. Stoychev, A. A. Auer, F. Neese, J. Chem. Theory Comput. 13, 554 (2017)

================================================================================
                                        WARNINGS
                       Please study these warnings very carefully!
================================================================================


WARNING: your system is open-shell and RHF/RKS was chosen
  ===> : WILL SWITCH to UHF/UKS


INFO   : the flag for use of the SHARK integral package has been found!

================================================================================
                                       INPUT FILE
================================================================================
NAME = /home/rwth0701/scratch/cs681498/orcajob__30556523-98Ng/16608.inp
|  1> !B3LYP EPR-III Autoaux
|  2> !PAL4
|  3> 
|  4> * xyz 0 2
|  5>  C    -76.3667730440   -101.9506938224    -29.4949033194
|  6>  H    -76.9528709120   -102.8483218442    -29.6073515519
|  7>  H    -75.3509784021   -102.0272203115    -29.4775885045
|  8>  H    -77.0509382889   -101.1156423159    -29.4705675630
|  9> *
| 10> 
| 11> %EPRNMR
| 12>         GTENSOR   TRUE
| 13>         NUCLEI    = ALL H {AISO, ADIP, AORB}
| 14>         NUCLEI    = ALL C {AISO, ADIP, AORB}
| 15> END
| 16> 
| 17> 
| 18>                          ****END OF INPUT****
================================================================================

                       ****************************
                       * Single Point Calculation *
                       ****************************

---------------------------------
CARTESIAN COORDINATES (ANGSTROEM)
---------------------------------
  C    -76.366773  -101.950694  -29.494903
  H    -76.952871  -102.848322  -29.607352
  H    -75.350978  -102.027220  -29.477589
  H    -77.050938  -101.115642  -29.470568

----------------------------
CARTESIAN COORDINATES (A.U.)
----------------------------
  NO LB      ZA    FRAG     MASS         X           Y           Z
   0 C     6.0000    0    12.011  -144.312287  -192.658890  -55.737290
   1 H     1.0000    0     1.008  -145.419851  -194.355162  -55.949786
   2 H     1.0000    0     1.008  -142.392713  -192.803505  -55.704569
   3 H     1.0000    0     1.008  -145.605172  -191.080872  -55.691302

--------------------------------
INTERNAL COORDINATES (ANGSTROEM)
--------------------------------
 C      0   0   0     0.000000000000     0.00000000     0.00000000
 H      1   0   0     1.077910655568     0.00000000     0.00000000
 H      1   2   0     1.018820328057   118.77316393     0.00000000
 H      1   2   3     1.079808006025   107.56772503   177.27529137

---------------------------
INTERNAL COORDINATES (A.U.)
---------------------------
 C      0   0   0     0.000000000000     0.00000000     0.00000000
 H      1   0   0     2.036955935859     0.00000000     0.00000000
 H      1   2   0     1.925291399699   118.77316393     0.00000000
 H      1   2   3     2.040541408604   107.56772503   177.27529137

---------------------
BASIS SET INFORMATION
---------------------
There are 2 groups of distinct atoms

 Group   1 Type C   : 12s8p2d1f contracted to 8s5p2d1f pattern {51111111/41111/11/1}
 Group   2 Type H   : 7s2p contracted to 5s2p pattern {31111/11}

Atom   0C    basis set group =>   1
Atom   1H    basis set group =>   2
Atom   2H    basis set group =>   2
Atom   3H    basis set group =>   2
---------------------------------
AUXILIARY/J BASIS SET INFORMATION
---------------------------------
There are 2 groups of distinct atoms

 Group   1 Type C   : 20s17p16d8f3g contracted to 20s17p16d8f3g pattern {11111111111111111111/11111111111111111/1111111111111111/11111111/111}
 Group   2 Type H   : 17s7p3d contracted to 17s7p3d pattern {11111111111111111/1111111/111}

Atom   0C    basis set group =>   1
Atom   1H    basis set group =>   2
Atom   2H    basis set group =>   2
Atom   3H    basis set group =>   2
---------------------------------
AUXILIARY/C BASIS SET INFORMATION
---------------------------------
There are 2 groups of distinct atoms

 Group   1 Type C   : 20s17p16d8f3g contracted to 20s17p16d8f3g pattern {11111111111111111111/11111111111111111/1111111111111111/11111111/111}
 Group   2 Type H   : 17s7p3d contracted to 17s7p3d pattern {11111111111111111/1111111/111}

Atom   0C    basis set group =>   1
Atom   1H    basis set group =>   2
Atom   2H    basis set group =>   2
Atom   3H    basis set group =>   2
----------------------------------
AUXILIARY/JK BASIS SET INFORMATION
----------------------------------
There are 2 groups of distinct atoms

 Group   1 Type C   : 20s17p16d8f3g contracted to 20s17p16d8f3g pattern {11111111111111111111/11111111111111111/1111111111111111/11111111/111}
 Group   2 Type H   : 17s7p3d contracted to 17s7p3d pattern {11111111111111111/1111111/111}

Atom   0C    basis set group =>   1
Atom   1H    basis set group =>   2
Atom   2H    basis set group =>   2
Atom   3H    basis set group =>   2


           ************************************************************
           *        Program running with 4 parallel MPI-processes     *
           *              working on a common directory               *
           ************************************************************
------------------------------------------------------------------------------
                           ORCA GTO INTEGRAL CALCULATION
                           -- RI-GTO INTEGRALS CHOSEN --
------------------------------------------------------------------------------
------------------------------------------------------------------------------
                   ___                                                        
                  /   \      - P O W E R E D   B Y -                         
                 /     \                                                     
                 |  |  |   _    _      __       _____    __    __             
                 |  |  |  | |  | |    /  \     |  _  \  |  |  /  |          
                  \  \/   | |  | |   /    \    | | | |  |  | /  /          
                 / \  \   | |__| |  /  /\  \   | |_| |  |  |/  /          
                |  |  |   |  __  | /  /__\  \  |    /   |      \           
                |  |  |   | |  | | |   __   |  |    \   |  |\   \          
                \     /   | |  | | |  |  |  |  | |\  \  |  | \   \       
                 \___/    |_|  |_| |__|  |__|  |_| \__\ |__|  \__/        
                                                                              
                      - O R C A' S   B I G   F R I E N D -                    
                                      &                                       
                       - I N T E G R A L  F E E D E R -                       
                                                                              
 v1 FN, 2020, v2 2021                                                         
------------------------------------------------------------------------------


Reading SHARK input file /home/rwth0701/scratch/cs681498/orcajob__30556523-98Ng/16608.SHARKINP.tmp ... ok
----------------------
SHARK INTEGRAL PACKAGE
----------------------

Number of atoms                             ...      4
Number of basis functions                   ...     73
Number of shells                            ...     37
Maximum angular momentum                    ...      3
Integral batch strategy                     ... SHARK/LIBINT Hybrid
RI-J (if used) integral strategy            ... SPLIT-RIJ (Revised 2003 algorithm where possible)
Printlevel                                  ...      1
Contraction scheme used                     ... SEGMENTED contraction
Coulomb Range Separation                    ... NOT USED
Exchange Range Separation                   ... NOT USED
Finite Nucleus Model                        ... NOT USED
Auxiliary Coulomb fitting basis             ... AVAILABLE
   # of basis functions in Aux-J            ...    393
   # of shells in Aux-J                     ...    145
   Maximum angular momentum in Aux-J        ...      4
Auxiliary J/K fitting basis                 ... AVAILABLE
   # of basis functions in Aux-JK           ...    393
   # of shells in Aux-JK                    ...    145
   Maximum angular momentum in Aux-JK       ...      4
Auxiliary Correlation fitting basis         ... AVAILABLE
   # of basis functions in Aux-C            ...    393
   # of shells in Aux-C                     ...    145
   Maximum angular momentum in Aux-C        ...      4
Auxiliary 'external' fitting basis          ... NOT available
Integral threshold                          ...     1.000000e-10
Primitive cut-off                           ...     1.000000e-11
Primitive pair pre-selection threshold      ...     1.000000e-11

Calculating pre-screening integrals         ... done (  0.0 sec) Dimension = 37
Organizing shell pair data                  ... done (  0.0 sec)
Shell pair information
Total number of shell pairs                 ...       703
Shell pairs after pre-screening             ...       688
Total number of primitive shell pairs       ...      1300
Primitive shell pairs kept                  ...      1184
          la=0 lb=0:    261 shell pairs
          la=1 lb=0:    253 shell pairs
          la=1 lb=1:     66 shell pairs
          la=2 lb=0:     46 shell pairs
          la=2 lb=1:     22 shell pairs
          la=2 lb=2:      3 shell pairs
          la=3 lb=0:     23 shell pairs
          la=3 lb=1:     11 shell pairs
          la=3 lb=2:      2 shell pairs
          la=3 lb=3:      1 shell pairs

Calculating one electron integrals          ... done (  0.0 sec)
Calculating RI/J V-Matrix + Cholesky decomp.... done (  0.1 sec)
Calculating RI/JK V-Matrix + Cholesky decomp... done (  0.1 sec)
Calculating RI/C V-Matrix + Cholesky decomp.... done (  0.1 sec)
Calculating Nuclear repulsion               ... done (  0.0 sec) ENN=      9.873905514849 Eh

SHARK setup successfully completed in   0.7 seconds

Maximum memory used throughout the entire GTOINT-calculation: 13.7 MB


           ************************************************************
           *        Program running with 4 parallel MPI-processes     *
           *              working on a common directory               *
           ************************************************************
-------------------------------------------------------------------------------
                                 ORCA SCF
-------------------------------------------------------------------------------

------------
SCF SETTINGS
------------
Hamiltonian:
 Density Functional     Method          .... DFT(GTOs)
 Exchange Functional    Exchange        .... B88
   X-Alpha parameter    XAlpha          ....  0.666667
   Becke's b parameter  XBeta           ....  0.004200
 Correlation Functional Correlation     .... LYP
 LDA part of GGA corr.  LDAOpt          .... VWN-5
 Gradients option       PostSCFGGA      .... off
 Hybrid DFT is turned on
   Fraction HF Exchange ScalHFX         ....  0.200000
   Scaling of DF-GGA-X  ScalDFX         ....  0.720000
   Scaling of DF-GGA-C  ScalDFC         ....  0.810000
   Scaling of DF-LDA-C  ScalLDAC        ....  1.000000
   Perturbative correction              ....  0.000000
   Density functional embedding theory  .... OFF
   NL short-range parameter             ....  4.800000
 RI-approximation to the Coulomb term is turned on
   Number of AuxJ basis functions       .... 393
   RIJ-COSX (HFX calculated with COS-X)).... on


General Settings:
 Integral files         IntName         .... /home/rwth0701/scratch/cs681498/orcajob__30556523-98Ng/16608
 Hartree-Fock type      HFTyp           .... UHF
 Total Charge           Charge          ....    0
 Multiplicity           Mult            ....    2
 Number of Electrons    NEL             ....    9
 Basis Dimension        Dim             ....   73
 Nuclear Repulsion      ENuc            ....      9.8739055148 Eh

Convergence Acceleration:
 DIIS                   CNVDIIS         .... on
   Start iteration      DIISMaxIt       ....    12
   Startup error        DIISStart       ....  0.200000
   # of expansion vecs  DIISMaxEq       ....     5
   Bias factor          DIISBfac        ....   1.050
   Max. coefficient     DIISMaxC        ....  10.000
 Trust-Rad. Augm. Hess. CNVTRAH         .... auto
   Auto Start mean grad. ratio tolernc. ....  1.125000
   Auto Start start iteration           ....    20
   Auto Start num. interpolation iter.  ....    10
   Max. Number of Micro iterations      ....    16
   Max. Number of Macro iterations      .... Maxiter - #DIIS iter
   Number of Davidson start vectors     ....     2
   Converg. threshold I  (grad. norm)   ....   5.000e-05
   Converg. threshold II (energy diff.) ....   1.000e-06
   Grad. Scal. Fac. for Micro threshold ....   0.100
   Minimum threshold for Micro iter.    ....   0.010
   NR start threshold (gradient norm)   ....   0.001
   Initial trust radius                 ....   0.400
   Minimum AH scaling param. (alpha)    ....   1.000
   Maximum AH scaling param. (alpha)    .... 1000.000
   Orbital update algorithm             .... Taylor
   White noise on init. David. guess    .... on
   Maximum white noise                  ....   0.010
   Quad. conv. algorithm                .... NR
 SOSCF                  CNVSOSCF        .... off
 Level Shifting         CNVShift        .... on
   Level shift para.    LevelShift      ....    0.2500
   Turn off err/grad.   ShiftErr        ....    0.0010
 Zerner damping         CNVZerner       .... off
 Static damping         CNVDamp         .... on
   Fraction old density DampFac         ....    0.7000
   Max. Damping (<1)    DampMax         ....    0.9800
   Min. Damping (>=0)   DampMin         ....    0.0000
   Turn off err/grad.   DampErr         ....    0.1000
 Fernandez-Rico         CNVRico         .... off

SCF Procedure:
 Maximum # iterations   MaxIter         ....   125
 SCF integral mode      SCFMode         .... Direct
   Integral package                     .... SHARK and LIBINT hybrid scheme
 Reset frequency        DirectResetFreq ....    20
 Integral Threshold     Thresh          ....  1.000e-10 Eh
 Primitive CutOff       TCut            ....  1.000e-11 Eh

Convergence Tolerance:
 Convergence Check Mode ConvCheckMode   .... Total+1el-Energy
 Convergence forced     ConvForced      .... 0
 Energy Change          TolE            ....  1.000e-06 Eh
 1-El. energy change                    ....  1.000e-03 Eh
 DIIS Error             TolErr          ....  1.000e-06


Diagonalization of the overlap matrix:
Smallest eigenvalue                        ... 1.451e-03
Time for diagonalization                   ...    0.001 sec
Threshold for overlap eigenvalues          ... 1.000e-08
Number of eigenvalues below threshold      ... 0
Time for construction of square roots      ...    0.013 sec
Total time needed                          ...    0.014 sec

Time for model grid setup =    0.047 sec

------------------------------
INITIAL GUESS: MODEL POTENTIAL
------------------------------
Loading Hartree-Fock densities                     ... done
Calculating cut-offs                               ... done
Initializing the effective Hamiltonian             ... done
Setting up the integral package (SHARK)            ... done
Starting the Coulomb interaction                   ... done (   0.1 sec)
Reading the grid                                   ... done
Mapping shells                                     ... done
Starting the XC term evaluation                    ... done (   0.0 sec)
  promolecular density results
     # of electrons  =      8.998333018
     EX              =     -5.981129587
     EC              =     -0.261157553
     EX+EC           =     -6.242287140
Transforming the Hamiltonian                       ... done (   0.0 sec)
Diagonalizing the Hamiltonian                      ... done (   0.0 sec)
Back transforming the eigenvectors                 ... done (   0.0 sec)
Now organizing SCF variables                       ... done
                      ------------------
                      INITIAL GUESS DONE (   0.2 sec)
                      ------------------
-------------------
DFT GRID GENERATION
-------------------

General Integration Accuracy     IntAcc      ... 4.388
Radial Grid Type                 RadialGrid  ... OptM3 with GC (2021)
Angular Grid (max. ang.)         AngularGrid ... 4 (Lebedev-302)
Angular grid pruning method      GridPruning ... 4 (adaptive)
Weight generation scheme         WeightScheme... Becke
Basis function cutoff            BFCut       ... 1.0000e-10
Integration weight cutoff        WCut        ... 1.0000e-14
Angular grids for H and He will be reduced by one unit
Partially contracted basis set               ... off
Rotationally invariant grid construction     ... off

Total number of grid points                  ...    17028
Total number of batches                      ...      268
Average number of points per batch           ...       63
Average number of grid points per atom       ...     4257
Time for grid setup =    0.135 sec

--------------------
COSX GRID GENERATION
--------------------

GRIDX 1
-------
General Integration Accuracy     IntAcc      ... 3.816
Radial Grid Type                 RadialGrid  ... OptM3 with GC (2021)
Angular Grid (max. ang.)         AngularGrid ... 1 (Lebedev-50)
Angular grid pruning method      GridPruning ... 4 (adaptive)
Weight generation scheme         WeightScheme... Becke
Basis function cutoff            BFCut       ... 1.0000e-10
Integration weight cutoff        WCut        ... 1.0000e-14
Angular grids for H and He will be reduced by one unit
Partially contracted basis set               ... on
Rotationally invariant grid construction     ... off

Total number of grid points                  ...     2137
Total number of batches                      ...       35
Average number of points per batch           ...       61
Average number of grid points per atom       ...      534
UseSFitting                                  ... on

GRIDX 2
-------
General Integration Accuracy     IntAcc      ... 4.020
Radial Grid Type                 RadialGrid  ... OptM3 with GC (2021)
Angular Grid (max. ang.)         AngularGrid ... 2 (Lebedev-110)
Angular grid pruning method      GridPruning ... 4 (adaptive)
Weight generation scheme         WeightScheme... Becke
Basis function cutoff            BFCut       ... 1.0000e-10
Integration weight cutoff        WCut        ... 1.0000e-14
Angular grids for H and He will be reduced by one unit
Partially contracted basis set               ... on
Rotationally invariant grid construction     ... off

Total number of grid points                  ...     5047
Total number of batches                      ...       81
Average number of points per batch           ...       62
Average number of grid points per atom       ...     1262
UseSFitting                                  ... on

GRIDX 3
-------
General Integration Accuracy     IntAcc      ... 4.338
Radial Grid Type                 RadialGrid  ... OptM3 with GC (2021)
Angular Grid (max. ang.)         AngularGrid ... 3 (Lebedev-194)
Angular grid pruning method      GridPruning ... 4 (adaptive)
Weight generation scheme         WeightScheme... Becke
Basis function cutoff            BFCut       ... 1.0000e-10
Integration weight cutoff        WCut        ... 1.0000e-14
Angular grids for H and He will be reduced by one unit
Partially contracted basis set               ... on
Rotationally invariant grid construction     ... off

Total number of grid points                  ...    11718
Total number of batches                      ...      185
Average number of points per batch           ...       63
Average number of grid points per atom       ...     2930
UseSFitting                                  ... on

Time for X-Grid setup             =    0.226 sec

--------------
SCF ITERATIONS
--------------
ITER       Energy         Delta-E        Max-DP      RMS-DP      [F,P]     Damp
               ***  Starting incremental Fock matrix formation  ***
  0    -39.7752440771   0.000000000000 0.01618584  0.00052210  0.0973482 0.7000
  1    -39.7959577610  -0.020713683908 0.01013409  0.00038859  0.0514167 0.7000
                               ***Turning on DIIS***
  2    -39.8052089086  -0.009251147609 0.01629805  0.00067892  0.0209872 0.0000
  3    -39.8178541937  -0.012645285050 0.00899580  0.00029176  0.0295642 0.0000
  4    -39.8216238353  -0.003769641602 0.00314793  0.00008170  0.0061150 0.0000
  5    -39.8217788544  -0.000155019063 0.00110690  0.00003300  0.0019930 0.0000
  6    -39.8217962753  -0.000017420947 0.00089926  0.00002472  0.0008285 0.0000
               *** Restarting incremental Fock matrix formation ***
                                   *** Resetting DIIS ***
  7    -39.8218139098  -0.000017634523 0.00009067  0.00000318  0.0000996 0.0000
                 **** Energy Check signals convergence ****

               *****************************************************
               *                     SUCCESS                       *
               *           SCF CONVERGED AFTER   8 CYCLES          *
               *****************************************************

Old exchange energy                            =     -1.246011453 Eh
New exchange energy                            =     -1.246008087 Eh
Exchange energy change after final integration =      0.000003366 Eh
Total energy after final integration           =    -39.821810623 Eh
Final COS-X integration done in                =     0.171 sec

----------------
TOTAL SCF ENERGY
----------------

Total Energy       :          -39.82181062 Eh           -1083.60656 eV

Components:
Nuclear Repulsion  :            9.87390551 Eh             268.68263 eV
Electronic Energy  :          -49.69571614 Eh           -1352.28919 eV
One Electron Energy:          -72.00876377 Eh           -1959.45808 eV
Two Electron Energy:           22.31304763 Eh             607.16889 eV
Max COSX asymmetry :            0.00000005 Eh               0.00000 eV

Virial components:
Potential Energy   :          -79.53945429 Eh           -2164.37859 eV
Kinetic Energy     :           39.71764367 Eh            1080.77203 eV
Virial Ratio       :            2.00262269


DFT components:
N(Alpha)           :        4.999999169373 electrons
N(Beta)            :        4.000000310463 electrons
N(Total)           :        8.999999479835 electrons
E(X)               :       -4.930414902963 Eh       
E(C)               :       -0.310757545607 Eh       
E(XC)              :       -5.241172448570 Eh       
DFET-embed. en.    :        0.000000000000 Eh       

---------------
SCF CONVERGENCE
---------------

  Last Energy change         ...   -7.9473e-08  Tolerance :   1.0000e-06
  Last MAX-Density change    ...    0.0000e+00  Tolerance :   1.0000e-05
  Last RMS-Density change    ...    0.0000e+00  Tolerance :   1.0000e-06
  Last DIIS Error            ...    7.0093e-05  Tolerance :   1.0000e-06

             **** THE GBW FILE WAS UPDATED (/home/rwth0701/scratch/cs681498/orcajob__30556523-98Ng/16608.gbw) ****
             **** DENSITY /home/rwth0701/scratch/cs681498/orcajob__30556523-98Ng/16608.scfp WAS UPDATED ****
             **** ENERGY FILE WAS UPDATED (/home/rwth0701/scratch/cs681498/orcajob__30556523-98Ng/16608.en.tmp) ****
----------------------
UHF SPIN CONTAMINATION
----------------------

Warning: in a DFT calculation there is little theoretical justification to 
         calculate <S**2> as in Hartree-Fock theory. We will do it anyways
         but you should keep in mind that the values have only limited relevance

Expectation value of <S**2>     :     0.753455
Ideal value S*(S+1) for S=0.5   :     0.750000
Deviation                       :     0.003455

             **** THE GBW FILE WAS UPDATED (/home/rwth0701/scratch/cs681498/orcajob__30556523-98Ng/16608.gbw) ****
             **** DENSITY /home/rwth0701/scratch/cs681498/orcajob__30556523-98Ng/16608.scfp WAS UPDATED ****
----------------
ORBITAL ENERGIES
----------------
                 SPIN UP ORBITALS
  NO   OCC          E(Eh)            E(eV) 
   0   1.0000     -10.177948      -276.9560 
   1   1.0000      -0.694688       -18.9034 
   2   1.0000      -0.452378       -12.3098 
   3   1.0000      -0.401451       -10.9240 
   4   1.0000      -0.235105        -6.3975 
   5   0.0000       0.001485         0.0404 
   6   0.0000       0.034119         0.9284 
   7   0.0000       0.039179         1.0661 
   8   0.0000       0.047555         1.2940 
   9   0.0000       0.085431         2.3247 
  10   0.0000       0.096593         2.6284 
  11   0.0000       0.104582         2.8458 
  12   0.0000       0.215791         5.8720 
  13   0.0000       0.224281         6.1030 
  14   0.0000       0.247932         6.7466 
  15   0.0000       0.276468         7.5231 
  16   0.0000       0.296596         8.0708 
  17   0.0000       0.341667         9.2972 
  18   0.0000       0.350970         9.5504 
  19   0.0000       0.551173        14.9982 
  20   0.0000       0.573065        15.5939 
  21   0.0000       0.719971        19.5914 
  22   0.0000       0.736560        20.0428 
  23   0.0000       0.767252        20.8780 
  24   0.0000       0.839419        22.8417 
  25   0.0000       0.904484        24.6123 
  26   0.0000       0.926409        25.2089 
  27   0.0000       0.938928        25.5495 
  28   0.0000       0.967107        26.3163 
  29   0.0000       1.043229        28.3877 
  30   0.0000       1.069943        29.1146 
  31   0.0000       1.151259        31.3274 
  32   0.0000       1.172388        31.9023 
  33   0.0000       1.177377        32.0381 
  34   0.0000       1.441172        39.2163 
  35   0.0000       1.490829        40.5675 
  36   0.0000       1.540600        41.9219 
  37   0.0000       1.716566        46.7101 
  38   0.0000       1.752836        47.6971 
  39   0.0000       1.802437        49.0468 
  40   0.0000       2.703666        73.5705 
  41   0.0000       2.734733        74.4159 
  42   0.0000       2.848769        77.5190 
  43   0.0000       2.897707        78.8506 
  44   0.0000       2.947369        80.2020 
  45   0.0000       2.982873        81.1681 
  46   0.0000       2.999898        81.6314 
  47   0.0000       3.143023        85.5260 
  48   0.0000       3.167883        86.2025 
  49   0.0000       3.246634        88.3454 
  50   0.0000       3.257607        88.6440 
  51   0.0000       3.669804        99.8604 
  52   0.0000       3.716494       101.1309 
  53   0.0000       3.884917       105.7140 
  54   0.0000       3.973607       108.1273 
  55   0.0000       3.994085       108.6846 
  56   0.0000       4.075344       110.8957 
  57   0.0000       4.167786       113.4112 
  58   0.0000       4.228123       115.0531 
  59   0.0000       4.273137       116.2780 
  60   0.0000       4.636878       126.1759 
  61   0.0000       5.052096       137.4745 
  62   0.0000       5.461541       148.6161 
  63   0.0000       5.551225       151.0565 
  64   0.0000       5.667209       154.2126 
  65   0.0000       6.058328       164.8555 
  66   0.0000       6.240857       169.8224 
  67   0.0000       7.820251       212.7999 
  68   0.0000      29.113644       792.2225 
  69   0.0000      37.171453      1011.4867 
  70   0.0000      37.215253      1012.6785 
  71   0.0000      37.301346      1015.0212 
  72   0.0000     133.581506      3634.9376 

                 SPIN DOWN ORBITALS
  NO   OCC          E(Eh)            E(eV) 
   0   1.0000     -10.163621      -276.5662 
   1   1.0000      -0.655525       -17.8378 
   2   1.0000      -0.442825       -12.0499 
   3   1.0000      -0.391552       -10.6547 
   4   0.0000      -0.077832        -2.1179 
   5   0.0000       0.004430         0.1205 
   6   0.0000       0.033758         0.9186 
   7   0.0000       0.038720         1.0536 
   8   0.0000       0.060727         1.6525 
   9   0.0000       0.086605         2.3566 
  10   0.0000       0.101302         2.7566 
  11   0.0000       0.104834         2.8527 
  12   0.0000       0.217640         5.9223 
  13   0.0000       0.225836         6.1453 
  14   0.0000       0.266604         7.2547 
  15   0.0000       0.302321         8.2266 
  16   0.0000       0.310704         8.4547 
  17   0.0000       0.345926         9.4131 
  18   0.0000       0.365060         9.9338 
  19   0.0000       0.578642        15.7456 
  20   0.0000       0.601035        16.3550 
  21   0.0000       0.723182        19.6788 
  22   0.0000       0.737874        20.0786 
  23   0.0000       0.792051        21.5528 
  24   0.0000       0.838626        22.8202 
  25   0.0000       0.910007        24.7625 
  26   0.0000       0.932573        25.3766 
  27   0.0000       0.953464        25.9451 
  28   0.0000       0.986319        26.8391 
  29   0.0000       1.071417        29.1547 
  30   0.0000       1.122294        30.5392 
  31   0.0000       1.171236        31.8709 
  32   0.0000       1.188009        32.3274 
  33   0.0000       1.190116        32.3847 
  34   0.0000       1.454249        39.5721 
  35   0.0000       1.506088        40.9827 
  36   0.0000       1.552051        42.2334 
  37   0.0000       1.721932        46.8562 
  38   0.0000       1.760780        47.9133 
  39   0.0000       1.809333        49.2345 
  40   0.0000       2.744772        74.6890 
  41   0.0000       2.775435        75.5234 
  42   0.0000       2.852638        77.6242 
  43   0.0000       2.928038        79.6760 
  44   0.0000       2.987272        81.2878 
  45   0.0000       3.003104        81.7186 
  46   0.0000       3.052358        83.0589 
  47   0.0000       3.191074        86.8335 
  48   0.0000       3.218313        87.5747 
  49   0.0000       3.300549        89.8125 
  50   0.0000       3.312921        90.1492 
  51   0.0000       3.672291        99.9281 
  52   0.0000       3.777594       102.7936 
  53   0.0000       3.884726       105.7088 
  54   0.0000       3.975748       108.1856 
  55   0.0000       4.011727       109.1646 
  56   0.0000       4.094701       111.4225 
  57   0.0000       4.171155       113.5029 
  58   0.0000       4.250676       115.6668 
  59   0.0000       4.275607       116.3452 
  60   0.0000       4.637627       126.1962 
  61   0.0000       5.073132       138.0469 
  62   0.0000       5.460473       148.5870 
  63   0.0000       5.549543       151.0107 
  64   0.0000       5.664602       154.1416 
  65   0.0000       6.062643       164.9729 
  66   0.0000       6.244742       169.9281 
  67   0.0000       7.855921       213.7705 
  68   0.0000      29.140472       792.9526 
  69   0.0000      37.160236      1011.1814 
  70   0.0000      37.203595      1012.3613 
  71   0.0000      37.290006      1014.7126 
  72   0.0000     133.589299      3635.1496 

                    ********************************
                    * MULLIKEN POPULATION ANALYSIS *
                    ********************************

--------------------------------------------
MULLIKEN ATOMIC CHARGES AND SPIN POPULATIONS
--------------------------------------------
   0 C :   -0.431461    1.100703
   1 H :    0.130817   -0.035419
   2 H :    0.155375   -0.029472
   3 H :    0.145269   -0.035811
Sum of atomic charges         :   -0.0000000
Sum of atomic spin populations:    1.0000000

-----------------------------------------------------
MULLIKEN REDUCED ORBITAL CHARGES AND SPIN POPULATIONS
-----------------------------------------------------
CHARGE
  0 C s       :     3.312666  s :     3.312666
      pz      :     0.967531  p :     3.091116
      px      :     1.058300
      py      :     1.065286
      dz2     :     0.005623  d :     0.024452
      dxz     :     0.000105
      dyz     :     0.000230
      dx2y2   :     0.006519
      dxy     :     0.011975
      f0      :     0.000045  f :     0.003227
      f+1     :     0.000869
      f-1     :     0.000627
      f+2     :     0.000016
      f-2     :     0.000029
      f+3     :     0.001452
      f-3     :     0.000188
  1 H s       :     0.842760  s :     0.842760
      pz      :     0.010173  p :     0.026423
      px      :     0.007197
      py      :     0.009053
  2 H s       :     0.814000  s :     0.814000
      pz      :     0.012246  p :     0.030624
      px      :     0.010475
      py      :     0.007904
  3 H s       :     0.826746  s :     0.826746
      pz      :     0.010639  p :     0.027985
      px      :     0.008274
      py      :     0.009071

SPIN
  0 C s       :     0.067459  s :     0.067459
      pz      :     0.959063  p :     1.037585
      px      :     0.036132
      py      :     0.042390
      dz2     :    -0.004598  d :    -0.002992
      dxz     :    -0.000009
      dyz     :    -0.000064
      dx2y2   :     0.000483
      dxy     :     0.001196
      f0      :    -0.000018  f :    -0.001349
      f+1     :    -0.000698
      f-1     :    -0.000571
      f+2     :    -0.000000
      f-2     :    -0.000013
      f+3     :    -0.000054
      f-3     :     0.000005
  1 H s       :    -0.044764  s :    -0.044764
      pz      :     0.010060  p :     0.009345
      px      :    -0.000352
      py      :    -0.000364
  2 H s       :    -0.041533  s :    -0.041533
      pz      :     0.012178  p :     0.012061
      px      :    -0.000047
      py      :    -0.000070
  3 H s       :    -0.045894  s :    -0.045894
      pz      :     0.010573  p :     0.010082
      px      :    -0.000126
      py      :    -0.000364


                     *******************************
                     * LOEWDIN POPULATION ANALYSIS *
                     *******************************

-------------------------------------------
LOEWDIN ATOMIC CHARGES AND SPIN POPULATIONS
-------------------------------------------
   0 C :   -0.130810    0.897911
   1 H :    0.051632    0.031274
   2 H :    0.023594    0.040606
   3 H :    0.055585    0.030209

----------------------------------------------------
LOEWDIN REDUCED ORBITAL CHARGES AND SPIN POPULATIONS
----------------------------------------------------
CHARGE
  0 C s       :     2.863700  s :     2.863700
      pz      :     0.866835  p :     3.167776
      px      :     1.150349
      py      :     1.150592
      dz2     :     0.007508  d :     0.091200
      dxz     :     0.000340
      dyz     :     0.000603
      dx2y2   :     0.031020
      dxy     :     0.051728
      f0      :     0.000288  f :     0.008135
      f+1     :     0.002283
      f-1     :     0.001596
      f+2     :     0.000026
      f-2     :     0.000104
      f+3     :     0.003151
      f-3     :     0.000688
  1 H s       :     0.801205  s :     0.801205
      pz      :     0.043089  p :     0.147163
      px      :     0.042870
      py      :     0.061205
  2 H s       :     0.811733  s :     0.811733
      pz      :     0.050057  p :     0.164673
      px      :     0.074682
      py      :     0.039933
  3 H s       :     0.798163  s :     0.798163
      pz      :     0.042332  p :     0.146252
      px      :     0.045697
      py      :     0.058223

SPIN
  0 C s       :     0.018262  s :     0.018262
      pz      :     0.857497  p :     0.888459
      px      :     0.011693
      py      :     0.019269
      dz2     :    -0.004098  d :    -0.007519
      dxz     :    -0.000029
      dyz     :    -0.000086
      dx2y2   :    -0.001188
      dxy     :    -0.002118
      f0      :     0.000177  f :    -0.001291
      f+1     :    -0.000624
      f-1     :    -0.000505
      f+2     :    -0.000002
      f-2     :    -0.000018
      f+3     :    -0.000283
      f-3     :    -0.000036
  1 H s       :    -0.015901  s :    -0.015901
      pz      :     0.042393  p :     0.047175
      px      :     0.001659
      py      :     0.003123
  2 H s       :    -0.015062  s :    -0.015062
      pz      :     0.049735  p :     0.055667
      px      :     0.004815
      py      :     0.001117
  3 H s       :    -0.017066  s :    -0.017066
      pz      :     0.042036  p :     0.047274
      px      :     0.002482
      py      :     0.002756


                      *****************************
                      * MAYER POPULATION ANALYSIS *
                      *****************************

  NA   - Mulliken gross atomic population
  ZA   - Total nuclear charge
  QA   - Mulliken gross atomic charge
  VA   - Mayer's total valence
  BVA  - Mayer's bonded valence
  FA   - Mayer's free valence

  ATOM       NA         ZA         QA         VA         BVA        FA
  0 C      6.4315     6.0000    -0.4315     3.8866     2.9439     0.9427
  1 H      0.8692     1.0000     0.1308     0.9802     0.9782     0.0020
  2 H      0.8446     1.0000     0.1554     0.9897     0.9879     0.0018
  3 H      0.8547     1.0000     0.1453     0.9849     0.9828     0.0021

  Mayer bond orders larger than 0.100000
B(  0-C ,  1-H ) :   0.9823 B(  0-C ,  2-H ) :   0.9807 B(  0-C ,  3-H ) :   0.9810 


-------
TIMINGS
-------

Total SCF time: 0 days 0 hours 0 min 4 sec 

Total time                  ....       4.824 sec
Sum of individual times     ....       4.148 sec  ( 86.0%)

Fock matrix formation       ....       3.444 sec  ( 71.4%)
  Split-RI-J                ....       0.411 sec  ( 11.9% of F)
  Chain of spheres X        ....       0.860 sec  ( 25.0% of F)
  XC integration            ....       1.323 sec  ( 38.4% of F)
    Basis function eval.    ....       0.106 sec  (  8.0% of XC)
    Density eval.           ....       0.100 sec  (  7.6% of XC)
    XC-Functional eval.     ....       0.096 sec  (  7.2% of XC)
    XC-Potential eval.      ....       0.152 sec  ( 11.5% of XC)
Diagonalization             ....       0.038 sec  (  0.8%)
Density matrix formation    ....       0.002 sec  (  0.0%)
Population analysis         ....       0.059 sec  (  1.2%)
Initial guess               ....       0.104 sec  (  2.1%)
Orbital Transformation      ....       0.000 sec  (  0.0%)
Orbital Orthonormalization  ....       0.000 sec  (  0.0%)
DIIS solution               ....       0.092 sec  (  1.9%)
Grid generation             ....       0.408 sec  (  8.5%)

Maximum memory used throughout the entire SCF-calculation: 59.0 MB

-------------------------   --------------------
FINAL SINGLE POINT ENERGY       -39.821810623046
-------------------------   --------------------

   --->>> g-tensor requested, so NeedSOC=true

                            ***************************************
                            *     ORCA property calculations      *
                            ***************************************

                                    ---------------------
                                    Active property flags
                                    ---------------------
   (+) Dipole Moment
   (+) g-tensor
   (+) Nuclear properties (Hyperfine,Quadrupole)
   (+) Spin-Orbit Integrals are needed


------------------------------------------------------------------------------
                       ORCA ELECTRIC PROPERTIES CALCULATION
------------------------------------------------------------------------------

Dipole Moment Calculation                       ... on
Quadrupole Moment Calculation                   ... off
Polarizability Calculation                      ... off
GBWName                                         ... /home/rwth0701/scratch/cs681498/orcajob__30556523-98Ng/16608.gbw
Electron density                                ... /home/rwth0701/scratch/cs681498/orcajob__30556523-98Ng/16608.scfp
The origin for moment calculation is the CENTER OF MASS  = (-144.344526, -192.676514 -55.746259)

-------------
DIPOLE MOMENT
-------------
                                X             Y             Z
Electronic contribution:      0.17348       0.08981       0.03676
Nuclear contribution   :     -0.19072      -0.10425      -0.05306
                        -----------------------------------------
Total Dipole Moment    :     -0.01724      -0.01445      -0.01630
                        -----------------------------------------
Magnitude (a.u.)       :      0.02778
Magnitude (Debye)      :      0.07061



--------------------
Rotational spectrum 
--------------------
 
Rotational constants in cm-1:    11.311855     8.885749     4.978435 
Rotational constants in MHz : 339120.873289 266388.051844 149249.725343 

 Dipole components along the rotational axes: 
x,y,z [a.u.] :    -0.012044    -0.020521    -0.014337 
x,y,z [Debye]:    -0.030613    -0.052160    -0.036442 

 


           ************************************************************
           *        Program running with 4 parallel MPI-processes     *
           *              working on a common directory               *
           ************************************************************
------------------------------------------------------------------------------
                         ORCA SPIN-ORBIT COUPLING CALCULATION
------------------------------------------------------------------------------

GBW file                                    ... /home/rwth0701/scratch/cs681498/orcajob__30556523-98Ng/16608.gbw
Input density                               ... /home/rwth0701/scratch/cs681498/orcajob__30556523-98Ng/16608.scfp
Output integrals                            ... /home/rwth0701/scratch/cs681498/orcajob__30556523-98Ng/16608
Operator type                               ... Mean-field/Effective potential
   One-Electron Terms                       ... 1
   Coulomb Contribution                     ... 3
   Exchange Contribution                    ... 3
   Correlation Contribution                 ... 0
   Maximum number of centers                ... 4
SHARK 2-electron RIJ-SOMF                   ... done (  0.1 sec)
SHARK 1-electron  MaxCenter=4               ... done (  0.0 sec)
SHARK 2-electron DoJ,X=0,1 MaxCenter=1      ... done (  0.1 sec)

Maximum memory used throughout the entire SOC-calculation: 11.3 MB
Total time for SOC:  2.515


           ************************************************************
           *        Program running with 4 parallel MPI-processes     *
           *              working on a common directory               *
           ************************************************************
------------------------------------------------------------------------------
                                ORCA EPR/NMR CALCULATION
------------------------------------------------------------------------------

GBWName                      ... /home/rwth0701/scratch/cs681498/orcajob__30556523-98Ng/16608.gbw
Electron density             ... /home/rwth0701/scratch/cs681498/orcajob__30556523-98Ng/16608.scfp
Spin density                 ... /home/rwth0701/scratch/cs681498/orcajob__30556523-98Ng/16608.scfr
Spin-orbit integrals         ... /home/rwth0701/scratch/cs681498/orcajob__30556523-98Ng/16608
Treatment of gauge           ... GIAO (approximations 1/2el = 0,0)
Details of the CP(SCF) procedure:
       Solver   = POPLE   
       MaxIter  =    64   
       Tolerance=    1.000e-03
       COSX Grid=     1   
       Op-0     =   0-  4 =>   5- 72
       Op-1     =   0-  3 =>   4- 72
Multiplicity                 ... 2
g-tensor                     ... 1
NMR chemical shifts          ... 0
NMR spin-spin couplings      ... 0
NMR spectrum                 ... 0
Number of nuclei for epr/nmr ... 4
   Nucleus:   1H 
       Hyperfine : Isotope=    1 I=   0.500 P= 533.551
       Quadrupole: Isotope=    2 I=   1.000 Q=   0.003
       Spin-Orbit: Zeff=   1.000
       Nuclear Spin-Spin: Gn=   0.000
       EPRNMR Input: 
       rho(0)=N f(grad)=N a(iso)=Y a(dip)=Y a(orb)=Y sigma(nmr)=N spin-spin(nmr)=all-N,DSO-N,PSO-N,FC-N,SD-N
   Nucleus:   2H 
       Hyperfine : Isotope=    1 I=   0.500 P= 533.551
       Quadrupole: Isotope=    2 I=   1.000 Q=   0.003
       Spin-Orbit: Zeff=   1.000
       Nuclear Spin-Spin: Gn=   0.000
       EPRNMR Input: 
       rho(0)=N f(grad)=N a(iso)=Y a(dip)=Y a(orb)=Y sigma(nmr)=N spin-spin(nmr)=all-N,DSO-N,PSO-N,FC-N,SD-N
   Nucleus:   3H 
       Hyperfine : Isotope=    1 I=   0.500 P= 533.551
       Quadrupole: Isotope=    2 I=   1.000 Q=   0.003
       Spin-Orbit: Zeff=   1.000
       Nuclear Spin-Spin: Gn=   0.000
       EPRNMR Input: 
       rho(0)=N f(grad)=N a(iso)=Y a(dip)=Y a(orb)=Y sigma(nmr)=N spin-spin(nmr)=all-N,DSO-N,PSO-N,FC-N,SD-N
   Nucleus:   0C 
       Hyperfine : Isotope=   13 I=   0.500 P= 134.190
       Quadrupole: Isotope=   13 I=   0.500 Q=   0.000
       Spin-Orbit: Zeff=   3.600
       Nuclear Spin-Spin: Gn=   0.000
       EPRNMR Input: 
       rho(0)=N f(grad)=N a(iso)=Y a(dip)=Y a(orb)=Y sigma(nmr)=N spin-spin(nmr)=all-N,DSO-N,PSO-N,FC-N,SD-N
Forming RHS of the CP-SCF equations         ... 
Calculating right hand sides for GIAO treatment        ... 
  Entering RightHandSide GIAO. ScalHFX=    0.2000 NeedHFX=1
     -> 1-electron GIAO integrals will be done analytically
     -> RIJCOSX used in SCF. Same chosen for GIAO calculation.
     Making grid for GIAO integrations   ...

GRID GIAO
---------

General Integration Accuracy     IntAcc      ... 4.388
Radial Grid Type                 RadialGrid  ... OptM3 with GC (2021)
Angular Grid (max. ang.)         AngularGrid ... 4 (Lebedev-302)
Angular grid pruning method      GridPruning ... 4 (adaptive)
Weight generation scheme         WeightScheme... Becke
Basis function cutoff            BFCut       ... 1.0000e-10
Integration weight cutoff        WCut        ... 1.0000e-14
Angular grids for H and He will be reduced by one unit
Partially contracted basis set               ... off
Rotationally invariant grid construction     ... off

Total number of grid points                  ...    17028
Total number of batches                      ...      268
Average number of points per batch           ...       63
Average number of grid points per atom       ...     4257

  One-electron GIAO integrals (SHARK)     ... done
  Calculating G(B)[P]                     ... (RI-J: SHARK-ok) (COSX-ok) (add-J+K:ok) => dG/dB done
  DFT XC-terms                            ... done
  Extracting occupied and virtual blocks  ... 
  Operator  0  NO=   5 NV=  68 
  Operator  1  NO=   4 NV=  69 
  Transforming and RHS contribution       ... done
  Adding eps_i * S(B)_ai terms            ... done
  Projecting overlap derivatives          ... done
  Building G[dS/dB_ij] (COSX)             ... done
  Transforming to MO basis                ... done
  Summing G[dS/dB_ij] into RHS contribs.  ... done

  GIAO profiling information: 
    Total GIAO time               ...       0.8 sec
       GIAO 1-electron integrals  ...       0.0 sec (  0.5%)
       GIAO G(dS/dB) terms        ...       0.1 sec ( 12.5%)
       GIAO RI-J                  ...       0.1 sec ( 12.6%)
       GIAO COSX                  ...       0.1 sec ( 18.2%)
       GIAO XC-terms              ...       0.3 sec ( 35.8%)

  GIAO right hand side done


------------------------------------------------------------------------------
                           ORCA CP-SCF CALCULATION
------------------------------------------------------------------------------

Input orbitals are from        ... /home/rwth0701/scratch/cs681498/orcajob__30556523-98Ng/16608.gbw
Input Perturbation             ... /home/rwth0701/scratch/cs681498/orcajob__30556523-98Ng/16608.pin.tmp
Wavefunction output            ... /home/rwth0701/scratch/cs681498/orcajob__30556523-98Ng/16608.pout.tmp
Perturbation mode              ... Imaginary perturbation
Solver                         ... POPLE
Max. number of iterations      ... 64
Convergence tolerance          ... 1.000e-03
Integral handling              ... Direct
DFT GridXC                     ... 1
COSX GridX                     ... 1
COSX IntAccX                   ... 3.067
COSX Algorithm                 ... Auto
Number of perturbations        ... 3
Number of operators            ... 2
Orbital ranges used for CP-SCF:
 Operator 0:  Orbitals   0...  4  to   5... 72
 Operator 1:  Orbitals   0...  3  to   4... 72
Variables per perturbation     ... 616
DFT calculation                         ... on
XC functional terms                     ... off
Hybrid DFT                              ... on
   Exchange mixing (SCF)                ...  0.200
   Exchange mixing (CP-SCF)             ...  0.200
   GGA exch. scaling(SCF)               ...  0.720
   GGA exch. scaling (CP-SCF)           ...  0.720
   GGA corr. scaling (SCF)              ...  0.810
   GGA corr. scaling (CP-SCF)           ...  0.810

CP-SCF GRID
-----------

General Integration Accuracy     IntAcc      ... 3.467
Radial Grid Type                 RadialGrid  ... OptM3 with GC (2021)
Angular Grid (max. ang.)         AngularGrid ... 1 (Lebedev-50)
Angular grid pruning method      GridPruning ... 4 (adaptive)
Weight generation scheme         WeightScheme... Becke
Basis function cutoff            BFCut       ... 1.0000e-10
Integration weight cutoff        WCut        ... 1.0000e-14
Angular grids for H and He will be reduced by one unit
Partially contracted basis set               ... off
Rotationally invariant grid construction     ... off

Total number of grid points                  ...     2333
Total number of batches                      ...       38
Average number of points per batch           ...       61
Average number of grid points per atom       ...      583

CP-SCF GRIDX
------------

General Integration Accuracy     IntAcc      ... 3.067
Radial Grid Type                 RadialGrid  ... OptM3 with GC (2021)
Angular Grid (max. ang.)         AngularGrid ... 1 (Lebedev-50)
Angular grid pruning method      GridPruning ... 4 (adaptive)
Weight generation scheme         WeightScheme... Becke
Basis function cutoff            BFCut       ... 1.0000e-10
Integration weight cutoff        WCut        ... 1.0000e-14
Angular grids for H and He will be reduced by one unit
Partially contracted basis set               ... on
Rotationally invariant grid construction     ... off

Total number of grid points                  ...     1067
Total number of batches                      ...       20
Average number of points per batch           ...       53
Average number of grid points per atom       ...      267

Memory available               ... 1014.6 MB
Memory needed per perturbation ...   0.4 MB
Perturbations treated per batch... 3
Number of batches              ... 1
     CP-SCF ITERATION   0:   1.0321e+01 (   0.1 sec   0/  3 done)
     CP-SCF ITERATION   1:   8.0336e-02 (   0.1 sec   0/  3 done)
     CP-SCF ITERATION   2:   3.5049e-03 (   0.1 sec   0/  3 done)
     CP-SCF ITERATION   3:   3.3491e-04 (   0.1 sec   3/  3 done)
                    *** THE CP-SCF HAS CONVERGED ***

Forming final perturbed densities           ... done
Transforming perturbed density to AO basis  ... done

Magnetic field perturbation calculated in  1.233 sec
GIAO: Diamagnetic terms      (analytic)     (SHARK) ... done
GIAO: 1el-Paramagnetic terms (analytic)     (SHARK) ... done

-------------------
ELECTRONIC G-MATRIX
-------------------

 The g-matrix: 
              2.0029449   -0.0000184    0.0000253
             -0.0000131    2.0029035    0.0000515
              0.0000066    0.0000209    2.0022471

 gel          2.0023193    2.0023193    2.0023193
 gRMC        -0.0001262   -0.0001262   -0.0001262
 gDSO(tot)    0.0000343    0.0000708    0.0000715
 gPSO(tot)    0.0000173    0.0006367    0.0006857
             ----------   ----------   ----------
 g(tot)       2.0022447    2.0029006    2.0029503 iso=  2.0026985
 Delta-g     -0.0000746    0.0005813    0.0006310 iso=  0.0003792
 Orientation: 
  X          -0.0239563    0.3154562   -0.9486377
  Y          -0.0554089    0.9470325    0.3163216
  Z           0.9981763    0.0601409   -0.0052083

Notes:  (1) The g-matrix conforms to the "BgS" spin Hamiltonian convention. 
        (2) The principal values are square roots of the eigenvalues of g*gT.
        (3) Orientations are eigenvectors of g*gT written as column vectors.
        (4) Individual contributions are projections of the full matrices onto the eigenvectors of g*gT.
        (5) Tensor is right-handed.


-----------------------------------------
ELECTRIC AND MAGNETIC HYPERFINE STRUCTURE
-----------------------------------------

 -----------------------------------------------------------
 Nucleus   1H : A:ISTP=    1 I=  0.5 P=533.5514 MHz/au**3
                Q:ISTP=    2 I=  1.0 Q=  0.0029 barn     
 -----------------------------------------------------------
 Solving for nuclear perturbation:
Forming RHS of the CP-SCF equations         ... 
Calc. nucleus orbit integrals (SHARK)       ... done

------------------------------------------------------------------------------
                           ORCA CP-SCF CALCULATION
------------------------------------------------------------------------------

Input orbitals are from        ... /home/rwth0701/scratch/cs681498/orcajob__30556523-98Ng/16608.gbw
Input Perturbation             ... /home/rwth0701/scratch/cs681498/orcajob__30556523-98Ng/16608.pin.tmp
Wavefunction output            ... /home/rwth0701/scratch/cs681498/orcajob__30556523-98Ng/16608.pout.tmp
Perturbation mode              ... Imaginary perturbation
Solver                         ... POPLE
Max. number of iterations      ... 64
Convergence tolerance          ... 1.000e-03
Integral handling              ... Direct
DFT GridXC                     ... 1
COSX GridX                     ... 1
COSX IntAccX                   ... 3.067
COSX Algorithm                 ... Auto
Number of perturbations        ... 3
Number of operators            ... 2
Orbital ranges used for CP-SCF:
 Operator 0:  Orbitals   0...  4  to   5... 72
 Operator 1:  Orbitals   0...  3  to   4... 72
Variables per perturbation     ... 616
DFT calculation                         ... on
XC functional terms                     ... off
Hybrid DFT                              ... on
   Exchange mixing (SCF)                ...  0.200
   Exchange mixing (CP-SCF)             ...  0.200
   GGA exch. scaling(SCF)               ...  0.720
   GGA exch. scaling (CP-SCF)           ...  0.720
   GGA corr. scaling (SCF)              ...  0.810
   GGA corr. scaling (CP-SCF)           ...  0.810

CP-SCF GRID
-----------

General Integration Accuracy     IntAcc      ... 3.467
Radial Grid Type                 RadialGrid  ... OptM3 with GC (2021)
Angular Grid (max. ang.)         AngularGrid ... 1 (Lebedev-50)
Angular grid pruning method      GridPruning ... 4 (adaptive)
Weight generation scheme         WeightScheme... Becke
Basis function cutoff            BFCut       ... 1.0000e-10
Integration weight cutoff        WCut        ... 1.0000e-14
Angular grids for H and He will be reduced by one unit
Partially contracted basis set               ... off
Rotationally invariant grid construction     ... off

Total number of grid points                  ...     2333
Total number of batches                      ...       38
Average number of points per batch           ...       61
Average number of grid points per atom       ...      583

CP-SCF GRIDX
------------

General Integration Accuracy     IntAcc      ... 3.067
Radial Grid Type                 RadialGrid  ... OptM3 with GC (2021)
Angular Grid (max. ang.)         AngularGrid ... 1 (Lebedev-50)
Angular grid pruning method      GridPruning ... 4 (adaptive)
Weight generation scheme         WeightScheme... Becke
Basis function cutoff            BFCut       ... 1.0000e-10
Integration weight cutoff        WCut        ... 1.0000e-14
Angular grids for H and He will be reduced by one unit
Partially contracted basis set               ... on
Rotationally invariant grid construction     ... off

Total number of grid points                  ...     1067
Total number of batches                      ...       20
Average number of points per batch           ...       53
Average number of grid points per atom       ...      267

Memory available               ... 968.0 MB
Memory needed per perturbation ...   0.4 MB
Perturbations treated per batch... 3
Number of batches              ... 1
     CP-SCF ITERATION   0:   6.0313e-02 (   0.1 sec   0/  3 done)
     CP-SCF ITERATION   1:   2.3376e-03 (   0.1 sec   1/  3 done)
     CP-SCF ITERATION   2:   2.0103e-04 (   0.1 sec   3/  3 done)
                    *** THE CP-SCF HAS CONVERGED ***

Forming final perturbed densities           ... done
Transforming perturbed density to AO basis  ... done

 Raw HFC matrix (all values in MHz): 
 -----------------------------------
               -77.9818              35.7420               2.6186
                35.7420             -46.7165               3.0825
                 2.6187               3.0826             -59.5040

 A(FC)         -61.4166             -61.4166             -61.4166
 A(SD)          38.5026               1.4795             -39.9821
 A(ORB+DIA)      0.0160              -0.0008               0.0322    A(PC) =   0.0158
 A(ORB)          0.0110               0.0004               0.0307    A(PC) =   0.0140
 A(DIA)          0.0050              -0.0012               0.0015    A(PC) =   0.0018
             ----------           ----------           ----------
 A(Tot)        -22.8980             -59.9379            -101.3665    A(iso)=  -61.4008
 Orientation: 
  X           0.5447179           -0.0495352            0.8371551
  Y           0.8315073           -0.0978296           -0.5468317
  Z           0.1089860            0.9939696           -0.0121007

Notes:  (1) The A matrix conforms to the "SAI" spin Hamiltonian convention.
        (2) Tensor is right-handed.

 -----------------------------------------------------------
 Nucleus   2H : A:ISTP=    1 I=  0.5 P=533.5514 MHz/au**3
                Q:ISTP=    2 I=  1.0 Q=  0.0029 barn     
 -----------------------------------------------------------
 Solving for nuclear perturbation:
Forming RHS of the CP-SCF equations         ... 
Calc. nucleus orbit integrals (SHARK)       ... done

------------------------------------------------------------------------------
                           ORCA CP-SCF CALCULATION
------------------------------------------------------------------------------

Input orbitals are from        ... /home/rwth0701/scratch/cs681498/orcajob__30556523-98Ng/16608.gbw
Input Perturbation             ... /home/rwth0701/scratch/cs681498/orcajob__30556523-98Ng/16608.pin.tmp
Wavefunction output            ... /home/rwth0701/scratch/cs681498/orcajob__30556523-98Ng/16608.pout.tmp
Perturbation mode              ... Imaginary perturbation
Solver                         ... POPLE
Max. number of iterations      ... 64
Convergence tolerance          ... 1.000e-03
Integral handling              ... Direct
DFT GridXC                     ... 1
COSX GridX                     ... 1
COSX IntAccX                   ... 3.067
COSX Algorithm                 ... Auto
Number of perturbations        ... 3
Number of operators            ... 2
Orbital ranges used for CP-SCF:
 Operator 0:  Orbitals   0...  4  to   5... 72
 Operator 1:  Orbitals   0...  3  to   4... 72
Variables per perturbation     ... 616
DFT calculation                         ... on
XC functional terms                     ... off
Hybrid DFT                              ... on
   Exchange mixing (SCF)                ...  0.200
   Exchange mixing (CP-SCF)             ...  0.200
   GGA exch. scaling(SCF)               ...  0.720
   GGA exch. scaling (CP-SCF)           ...  0.720
   GGA corr. scaling (SCF)              ...  0.810
   GGA corr. scaling (CP-SCF)           ...  0.810

CP-SCF GRID
-----------

General Integration Accuracy     IntAcc      ... 3.467
Radial Grid Type                 RadialGrid  ... OptM3 with GC (2021)
Angular Grid (max. ang.)         AngularGrid ... 1 (Lebedev-50)
Angular grid pruning method      GridPruning ... 4 (adaptive)
Weight generation scheme         WeightScheme... Becke
Basis function cutoff            BFCut       ... 1.0000e-10
Integration weight cutoff        WCut        ... 1.0000e-14
Angular grids for H and He will be reduced by one unit
Partially contracted basis set               ... off
Rotationally invariant grid construction     ... off

Total number of grid points                  ...     2333
Total number of batches                      ...       38
Average number of points per batch           ...       61
Average number of grid points per atom       ...      583

CP-SCF GRIDX
------------

General Integration Accuracy     IntAcc      ... 3.067
Radial Grid Type                 RadialGrid  ... OptM3 with GC (2021)
Angular Grid (max. ang.)         AngularGrid ... 1 (Lebedev-50)
Angular grid pruning method      GridPruning ... 4 (adaptive)
Weight generation scheme         WeightScheme... Becke
Basis function cutoff            BFCut       ... 1.0000e-10
Integration weight cutoff        WCut        ... 1.0000e-14
Angular grids for H and He will be reduced by one unit
Partially contracted basis set               ... on
Rotationally invariant grid construction     ... off

Total number of grid points                  ...     1067
Total number of batches                      ...       20
Average number of points per batch           ...       53
Average number of grid points per atom       ...      267

Memory available               ... 967.8 MB
Memory needed per perturbation ...   0.4 MB
Perturbations treated per batch... 3
Number of batches              ... 1
     CP-SCF ITERATION   0:   8.4649e-02 (   0.1 sec   0/  3 done)
     CP-SCF ITERATION   1:   3.2941e-03 (   0.1 sec   1/  3 done)
     CP-SCF ITERATION   2:   2.1489e-04 (   0.1 sec   3/  3 done)
                    *** THE CP-SCF HAS CONVERGED ***

Forming final perturbed densities           ... done
Transforming perturbed density to AO basis  ... done

 Raw HFC matrix (all values in MHz): 
 -----------------------------------
               -26.3682              -6.2620               0.2501
                -6.2619            -109.8146              -4.1105
                 0.2501              -4.1105             -61.8172

 A(FC)         -66.0156             -66.0156             -66.0156
 A(SD)          40.1087               4.5316             -44.6403
 A(ORB+DIA)      0.0146              -0.0006               0.0328    A(PC) =   0.0156
 A(ORB)          0.0088               0.0006               0.0311    A(PC) =   0.0135
 A(DIA)          0.0057              -0.0012               0.0017    A(PC) =   0.0021
             ----------           ----------           ----------
 A(Tot)        -25.8923             -61.4846            -110.6231    A(iso)=  -66.0000
 Orientation: 
  X           0.9970506            0.0217070            0.0736137
  Y          -0.0751575            0.0819316            0.9938001
  Z           0.0155411           -0.9964015            0.0833214

Notes:  (1) The A matrix conforms to the "SAI" spin Hamiltonian convention.
        (2) Tensor is right-handed.

 -----------------------------------------------------------
 Nucleus   3H : A:ISTP=    1 I=  0.5 P=533.5514 MHz/au**3
                Q:ISTP=    2 I=  1.0 Q=  0.0029 barn     
 -----------------------------------------------------------
 Solving for nuclear perturbation:
Forming RHS of the CP-SCF equations         ... 
Calc. nucleus orbit integrals (SHARK)       ... done

------------------------------------------------------------------------------
                           ORCA CP-SCF CALCULATION
------------------------------------------------------------------------------

Input orbitals are from        ... /home/rwth0701/scratch/cs681498/orcajob__30556523-98Ng/16608.gbw
Input Perturbation             ... /home/rwth0701/scratch/cs681498/orcajob__30556523-98Ng/16608.pin.tmp
Wavefunction output            ... /home/rwth0701/scratch/cs681498/orcajob__30556523-98Ng/16608.pout.tmp
Perturbation mode              ... Imaginary perturbation
Solver                         ... POPLE
Max. number of iterations      ... 64
Convergence tolerance          ... 1.000e-03
Integral handling              ... Direct
DFT GridXC                     ... 1
COSX GridX                     ... 1
COSX IntAccX                   ... 3.067
COSX Algorithm                 ... Auto
Number of perturbations        ... 3
Number of operators            ... 2
Orbital ranges used for CP-SCF:
 Operator 0:  Orbitals   0...  4  to   5... 72
 Operator 1:  Orbitals   0...  3  to   4... 72
Variables per perturbation     ... 616
DFT calculation                         ... on
XC functional terms                     ... off
Hybrid DFT                              ... on
   Exchange mixing (SCF)                ...  0.200
   Exchange mixing (CP-SCF)             ...  0.200
   GGA exch. scaling(SCF)               ...  0.720
   GGA exch. scaling (CP-SCF)           ...  0.720
   GGA corr. scaling (SCF)              ...  0.810
   GGA corr. scaling (CP-SCF)           ...  0.810

CP-SCF GRID
-----------

General Integration Accuracy     IntAcc      ... 3.467
Radial Grid Type                 RadialGrid  ... OptM3 with GC (2021)
Angular Grid (max. ang.)         AngularGrid ... 1 (Lebedev-50)
Angular grid pruning method      GridPruning ... 4 (adaptive)
Weight generation scheme         WeightScheme... Becke
Basis function cutoff            BFCut       ... 1.0000e-10
Integration weight cutoff        WCut        ... 1.0000e-14
Angular grids for H and He will be reduced by one unit
Partially contracted basis set               ... off
Rotationally invariant grid construction     ... off

Total number of grid points                  ...     2333
Total number of batches                      ...       38
Average number of points per batch           ...       61
Average number of grid points per atom       ...      583

CP-SCF GRIDX
------------

General Integration Accuracy     IntAcc      ... 3.067
Radial Grid Type                 RadialGrid  ... OptM3 with GC (2021)
Angular Grid (max. ang.)         AngularGrid ... 1 (Lebedev-50)
Angular grid pruning method      GridPruning ... 4 (adaptive)
Weight generation scheme         WeightScheme... Becke
Basis function cutoff            BFCut       ... 1.0000e-10
Integration weight cutoff        WCut        ... 1.0000e-14
Angular grids for H and He will be reduced by one unit
Partially contracted basis set               ... on
Rotationally invariant grid construction     ... off

Total number of grid points                  ...     1067
Total number of batches                      ...       20
Average number of points per batch           ...       53
Average number of grid points per atom       ...      267

Memory available               ... 967.7 MB
Memory needed per perturbation ...   0.4 MB
Perturbations treated per batch... 3
Number of batches              ... 1
     CP-SCF ITERATION   0:   6.6148e-02 (   0.1 sec   0/  3 done)
     CP-SCF ITERATION   1:   2.8655e-03 (   0.1 sec   1/  3 done)
     CP-SCF ITERATION   2:   2.4840e-04 (   0.1 sec   3/  3 done)
                    *** THE CP-SCF HAS CONVERGED ***

Forming final perturbed densities           ... done
Transforming perturbed density to AO basis  ... done

 Raw HFC matrix (all values in MHz): 
 -----------------------------------
               -74.1127             -38.2069              -3.0231
               -38.2078             -58.8911              -1.5271
                -3.0232              -1.5270             -64.9262

 A(FC)         -65.9921             -65.9921             -65.9921
 A(SD)          38.4463               1.3200             -39.7663
 A(ORB+DIA)      0.0166              -0.0008               0.0306    A(PC) =   0.0155
 A(ORB)          0.0116               0.0004               0.0292    A(PC) =   0.0137
 A(DIA)          0.0049              -0.0012               0.0014    A(PC) =   0.0017
             ----------           ----------           ----------
 A(Tot)        -27.5293             -64.6729            -105.7278    A(iso)=  -65.9767
 Orientation: 
  X           0.6348108            0.0498973            0.7710548
  Y          -0.7724145            0.0665224            0.6316254
  Z          -0.0197760           -0.9965365            0.0807705

Notes:  (1) The A matrix conforms to the "SAI" spin Hamiltonian convention.
        (2) Tensor is right-handed.

 -----------------------------------------------------------
 Nucleus   0C : A:ISTP=   13 I=  0.5 P=134.1903 MHz/au**3
                Q:ISTP=   13 I=  0.5 Q=  0.0000 barn     
 -----------------------------------------------------------
 Solving for nuclear perturbation:
Forming RHS of the CP-SCF equations         ... 
Calc. nucleus orbit integrals (SHARK)       ... done

------------------------------------------------------------------------------
                           ORCA CP-SCF CALCULATION
------------------------------------------------------------------------------

Input orbitals are from        ... /home/rwth0701/scratch/cs681498/orcajob__30556523-98Ng/16608.gbw
Input Perturbation             ... /home/rwth0701/scratch/cs681498/orcajob__30556523-98Ng/16608.pin.tmp
Wavefunction output            ... /home/rwth0701/scratch/cs681498/orcajob__30556523-98Ng/16608.pout.tmp
Perturbation mode              ... Imaginary perturbation
Solver                         ... POPLE
Max. number of iterations      ... 64
Convergence tolerance          ... 1.000e-03
Integral handling              ... Direct
DFT GridXC                     ... 1
COSX GridX                     ... 1
COSX IntAccX                   ... 3.067
COSX Algorithm                 ... Auto
Number of perturbations        ... 3
Number of operators            ... 2
Orbital ranges used for CP-SCF:
 Operator 0:  Orbitals   0...  4  to   5... 72
 Operator 1:  Orbitals   0...  3  to   4... 72
Variables per perturbation     ... 616
DFT calculation                         ... on
XC functional terms                     ... off
Hybrid DFT                              ... on
   Exchange mixing (SCF)                ...  0.200
   Exchange mixing (CP-SCF)             ...  0.200
   GGA exch. scaling(SCF)               ...  0.720
   GGA exch. scaling (CP-SCF)           ...  0.720
   GGA corr. scaling (SCF)              ...  0.810
   GGA corr. scaling (CP-SCF)           ...  0.810

CP-SCF GRID
-----------

General Integration Accuracy     IntAcc      ... 3.467
Radial Grid Type                 RadialGrid  ... OptM3 with GC (2021)
Angular Grid (max. ang.)         AngularGrid ... 1 (Lebedev-50)
Angular grid pruning method      GridPruning ... 4 (adaptive)
Weight generation scheme         WeightScheme... Becke
Basis function cutoff            BFCut       ... 1.0000e-10
Integration weight cutoff        WCut        ... 1.0000e-14
Angular grids for H and He will be reduced by one unit
Partially contracted basis set               ... off
Rotationally invariant grid construction     ... off

Total number of grid points                  ...     2333
Total number of batches                      ...       38
Average number of points per batch           ...       61
Average number of grid points per atom       ...      583

CP-SCF GRIDX
------------

General Integration Accuracy     IntAcc      ... 3.067
Radial Grid Type                 RadialGrid  ... OptM3 with GC (2021)
Angular Grid (max. ang.)         AngularGrid ... 1 (Lebedev-50)
Angular grid pruning method      GridPruning ... 4 (adaptive)
Weight generation scheme         WeightScheme... Becke
Basis function cutoff            BFCut       ... 1.0000e-10
Integration weight cutoff        WCut        ... 1.0000e-14
Angular grids for H and He will be reduced by one unit
Partially contracted basis set               ... on
Rotationally invariant grid construction     ... off

Total number of grid points                  ...     1067
Total number of batches                      ...       20
Average number of points per batch           ...       53
Average number of grid points per atom       ...      267

Memory available               ... 967.6 MB
Memory needed per perturbation ...   0.4 MB
Perturbations treated per batch... 3
Number of batches              ... 1
     CP-SCF ITERATION   0:   1.1866e+00 (   0.1 sec   0/  3 done)
     CP-SCF ITERATION   1:   4.7461e-02 (   0.1 sec   0/  3 done)
     CP-SCF ITERATION   2:   3.3169e-03 (   0.1 sec   1/  3 done)
     CP-SCF ITERATION   3:   1.8594e-04 (   0.1 sec   3/  3 done)
                    *** THE CP-SCF HAS CONVERGED ***

Forming final perturbed densities           ... done
Transforming perturbed density to AO basis  ... done

 Raw HFC matrix (all values in MHz): 
 -----------------------------------
                -4.9015               1.0075              -9.4314
                 1.0075              -2.3713             -19.3506
                -9.4313             -19.3506             234.1600

 A(FC)          75.7383              75.7383              75.7383
 A(SD)         -79.4808             -80.8981             160.3790
 A(ORB+DIA)     -0.1593              -0.1567              -0.0116    A(PC) =  -0.1092
 A(ORB)         -0.1597              -0.1571              -0.0115    A(PC) =  -0.1095
 A(DIA)          0.0004               0.0005              -0.0001    A(PC) =   0.0003
             ----------           ----------           ----------
 A(Tot)         -3.9019              -5.3165             236.1056    A(iso)=   75.6291
 Orientation: 
  X           0.1721565            0.9842848            0.0393128
  Y           0.9812573           -0.1748613            0.0809790
  Z           0.0865807            0.0246349           -0.9959402

Notes:  (1) The A matrix conforms to the "SAI" spin Hamiltonian convention.
        (2) Tensor is right-handed.


--------------------------------------------------------------------------------
----------------------------------------------------------------------------
                           ORCA EULER ANGLE PROGRAM
----------------------------------------------------------------------------

Only g-tensor available        -->  using g-tensor as reference tensor

Reference tensor               ...  g

g-tensor ordering              ...  |g_min> --> |gx>
                                    |g_mid> --> |gy>
                                    |g_max> --> |gz>

A- and EFG-tensor ordering     ...  the axes |Ax>, |Qx>, |Ay>, etc. are assigned
                                    such that the Euler rotation is minimal. You
                                    can find the respective eigenvalues as Ax,
                                    EFGx, Ay, etc. in the tables below.
                                    The relation of |Ax>, |Ay>,  etc. to Amin, Amid, etc.
                                    (as printed in the ORCA EPR/NMR CALCULATION Output)
                                    is obtained in the detailed printout.

Euler rotation around          ...  z - y - z
   First rotation              -->  by alpha around z
   Second rotation             -->  by beta around y'
   Third rotation              -->  by gamma around z''
   Positive / Negative angle   -->  clockwise / counterclockwise rotation

Plot EFG-tensors                    (-)
Plot HFC-tensors                    (-)
Detailed Printout                   (-)

-------------------------------------------------------------------------
          Euler rotation of hyperfine tensor to g-tensor
-------------------------------------------------------------------------

-------------------------------------------------------------------
 Atom  |   Alpha    Beta    Gamma   |   Ax       Ay       Az 
       |          [degrees]         |           [MHz]         
-------------------------------------------------------------------
  1H      -87.6     14.7     90.4     -59.94   -22.90  -101.37
  2H       92.5     14.1    -91.0     -61.48  -110.62   -25.89
  3H      -87.7     32.2     89.2     -64.67  -105.73   -27.53
  0C       87.5      8.4    -85.8     236.11    -3.90    -5.32
-------------------------------------------------------------------


Maximum memory used throughout the entire EPRNMR-calculation: 67.6 MB

Timings for individual modules:

Sum of individual times         ...       19.087 sec (=   0.318 min)
GTO integral calculation        ...        3.468 sec (=   0.058 min)  18.2 %
Spin-Orbit-Coupling Matrices    ...        2.495 sec (=   0.042 min)  13.1 %
SCF iterations                  ...        6.988 sec (=   0.116 min)  36.6 %
EPR/NMR calculation             ...        6.135 sec (=   0.102 min)  32.1 %
                             ****ORCA TERMINATED NORMALLY****
TOTAL RUN TIME: 0 days 0 hours 0 minutes 22 seconds 77 msec
