Job execution start: Mon Oct 24 19:40:36 CEST 2022
Shared library path: /home/cs681498/orca:/opt/MPI/openmpi-4.1.1/linux/gcc_4.8.5/lib:/opt/MPI/openmpi-4.1.1/linux/gcc_4.8.5/lib/lib32
Slurm Job ID is: 30556187
Slurm Job name is: 4222
ncm1001

                                 *****************
                                 * O   R   C   A *
                                 *****************

                                            #,                                       
                                            ###                                      
                                            ####                                     
                                            #####                                    
                                            ######                                   
                                           ########,                                 
                                     ,,################,,,,,                         
                               ,,#################################,,                 
                          ,,##########################################,,             
                       ,#########################################, ''#####,          
                    ,#############################################,,   '####,        
                  ,##################################################,,,,####,       
                ,###########''''           ''''###############################       
              ,#####''   ,,,,##########,,,,          '''####'''          '####       
            ,##' ,,,,###########################,,,                        '##       
           ' ,,###''''                  '''############,,,                           
         ,,##''                                '''############,,,,        ,,,,,,###''
      ,#''                                            '''#######################'''  
     '                                                          ''''####''''         
             ,#######,   #######,   ,#######,      ##                                
            ,#'     '#,  ##    ##  ,#'     '#,    #''#        ######   ,####,        
            ##       ##  ##   ,#'  ##            #'  '#       #        #'  '#        
            ##       ##  #######   ##           ,######,      #####,   #    #        
            '#,     ,#'  ##    ##  '#,     ,#' ,#      #,         ##   #,  ,#        
             '#######'   ##     ##  '#######'  #'      '#     #####' # '####'        



                  #######################################################
                  #                        -***-                        #
                  #          Department of theory and spectroscopy      #
                  #    Directorship and core code : Frank Neese         #
                  #        Max Planck Institute fuer Kohlenforschung    #
                  #                Kaiser Wilhelm Platz 1               #
                  #                 D-45470 Muelheim/Ruhr               #
                  #                      Germany                        #
                  #                                                     #
                  #                  All rights reserved                #
                  #                        -***-                        #
                  #######################################################


                         Program Version 5.0.3 -  RELEASE  -


 With contributions from (in alphabetic order):
   Daniel Aravena         : Magnetic Suceptibility
   Michael Atanasov       : Ab Initio Ligand Field Theory (pilot matlab implementation)
   Alexander A. Auer      : GIAO ZORA, VPT2 properties, NMR spectrum
   Ute Becker             : Parallelization
   Giovanni Bistoni       : ED, misc. LED, open-shell LED, HFLD
   Martin Brehm           : Molecular dynamics
   Dmytro Bykov           : SCF Hessian
   Vijay G. Chilkuri      : MRCI spin determinant printing, contributions to CSF-ICE
   Dipayan Datta          : RHF DLPNO-CCSD density
   Achintya Kumar Dutta   : EOM-CC, STEOM-CC
   Dmitry Ganyushin       : Spin-Orbit,Spin-Spin,Magnetic field MRCI
   Miquel Garcia          : C-PCM and meta-GGA Hessian, CC/C-PCM, Gaussian charge scheme
   Yang Guo               : DLPNO-NEVPT2, F12-NEVPT2, CIM, IAO-localization
   Andreas Hansen         : Spin unrestricted coupled pair/coupled cluster methods
   Benjamin Helmich-Paris : MC-RPA, TRAH-SCF, COSX integrals
   Lee Huntington         : MR-EOM, pCC
   Robert Izsak           : Overlap fitted RIJCOSX, COSX-SCS-MP3, EOM
   Marcus Kettner         : VPT2
   Christian Kollmar      : KDIIS, OOCD, Brueckner-CCSD(T), CCSD density, CASPT2, CASPT2-K
   Simone Kossmann        : Meta GGA functionals, TD-DFT gradient, OOMP2, MP2 Hessian
   Martin Krupicka        : Initial AUTO-CI
   Lucas Lang             : DCDCAS
   Marvin Lechner         : AUTO-CI (C++ implementation), FIC-MRCC
   Dagmar Lenk            : GEPOL surface, SMD
   Dimitrios Liakos       : Extrapolation schemes; Compound Job, initial MDCI parallelization
   Dimitrios Manganas     : Further ROCIS development; embedding schemes
   Dimitrios Pantazis     : SARC Basis sets
   Anastasios Papadopoulos: AUTO-CI, single reference methods and gradients
   Taras Petrenko         : DFT Hessian,TD-DFT gradient, ASA, ECA, R-Raman, ABS, FL, XAS/XES, NRVS
   Peter Pinski           : DLPNO-MP2, DLPNO-MP2 Gradient
   Christoph Reimann      : Effective Core Potentials
   Marius Retegan         : Local ZFS, SOC
   Christoph Riplinger    : Optimizer, TS searches, QM/MM, DLPNO-CCSD(T), (RO)-DLPNO pert. Triples
   Tobias Risthaus        : Range-separated hybrids, TD-DFT gradient, RPA, STAB
   Michael Roemelt        : Original ROCIS implementation
   Masaaki Saitow         : Open-shell DLPNO-CCSD energy and density
   Barbara Sandhoefer     : DKH picture change effects
   Avijit Sen             : IP-ROCIS
   Kantharuban Sivalingam : CASSCF convergence, NEVPT2, FIC-MRCI
   Bernardo de Souza      : ESD, SOC TD-DFT
   Georgi Stoychev        : AutoAux, RI-MP2 NMR, DLPNO-MP2 response
   Willem Van den Heuvel  : Paramagnetic NMR
   Boris Wezisla          : Elementary symmetry handling
   Frank Wennmohs         : Technical directorship


 We gratefully acknowledge several colleagues who have allowed us to
 interface, adapt or use parts of their codes:
   Stefan Grimme, W. Hujo, H. Kruse, P. Pracht,  : VdW corrections, initial TS optimization,
                  C. Bannwarth, S. Ehlert          DFT functionals, gCP, sTDA/sTD-DF
   Ed Valeev, F. Pavosevic, A. Kumar             : LibInt (2-el integral package), F12 methods
   Garnet Chan, S. Sharma, J. Yang, R. Olivares  : DMRG
   Ulf Ekstrom                                   : XCFun DFT Library
   Mihaly Kallay                                 : mrcc  (arbitrary order and MRCC methods)
   Jiri Pittner, Ondrej Demel                    : Mk-CCSD
   Frank Weinhold                                : gennbo (NPA and NBO analysis)
   Christopher J. Cramer and Donald G. Truhlar   : smd solvation model
   Lars Goerigk                                  : TD-DFT with DH, B97 family of functionals
   V. Asgeirsson, H. Jonsson                     : NEB implementation
   FAccTs GmbH                                   : IRC, NEB, NEB-TS, DLPNO-Multilevel, CI-OPT
                                                   MM, QMMM, 2- and 3-layer-ONIOM, Crystal-QMMM,
                                                   LR-CPCM, SF, NACMEs, symmetry and pop. for TD-DFT,
                                                   nearIR, NL-DFT gradient (VV10), updates on ESD,
                                                   ML-optimized integration grids
   S Lehtola, MJT Oliveira, MAL Marques          : LibXC Library
   Liviu Ungur et al                             : ANISO software


 Your calculation uses the libint2 library for the computation of 2-el integrals
 For citations please refer to: http://libint.valeyev.net

 Your ORCA version has been built with support for libXC version: 5.1.0
 For citations please refer to: https://tddft.org/programs/libxc/

 This ORCA versions uses:
   CBLAS   interface :  Fast vector & matrix operations
   LAPACKE interface :  Fast linear algebra routines
   SCALAPACK package :  Parallel linear algebra routines
   Shared memory     :  Shared parallel matrices
   BLAS/LAPACK       :  OpenBLAS 0.3.15  USE64BITINT DYNAMIC_ARCH NO_AFFINITY SkylakeX SINGLE_THREADED
        Core in use  :  SkylakeX
   Copyright (c) 2011-2014, The OpenBLAS Project


================================================================================

----- Orbital basis set information -----
Your calculation utilizes the basis: EPR-III
   V. Barone, in Recent Advances in Density Functional Methods, Part 1 (ed. D. P. Chong), World Scientific, Singapore, 1995, p. 287.
   N. Rega, M. Cossi and V. Barone, J. Chem. Phys. 105, 11060 (1996).

----- AuxJ basis set information -----
Your calculation utilizes the AutoAux generation procedure.
  G. L. Stoychev, A. A. Auer, F. Neese, J. Chem. Theory Comput. 13, 554 (2017)

----- AuxC basis set information -----
Your calculation utilizes the AutoAux generation procedure.
  G. L. Stoychev, A. A. Auer, F. Neese, J. Chem. Theory Comput. 13, 554 (2017)

----- AuxJK basis set information -----
Your calculation utilizes the AutoAux generation procedure.
  G. L. Stoychev, A. A. Auer, F. Neese, J. Chem. Theory Comput. 13, 554 (2017)

================================================================================
                                        WARNINGS
                       Please study these warnings very carefully!
================================================================================


WARNING: your system is open-shell and RHF/RKS was chosen
  ===> : WILL SWITCH to UHF/UKS


INFO   : the flag for use of the SHARK integral package has been found!

================================================================================
                                       INPUT FILE
================================================================================
NAME = /home/rwth0701/scratch/cs681498/orcajob__30556187-mx16/4222.inp
|  1> !B3LYP EPR-III Autoaux
|  2> !PAL4
|  3> 
|  4> * xyz 0 2
|  5>  C     -3.6041368170    -19.0073429673    -11.3224194539
|  6>  H     -3.7618567727    -18.2087601158    -10.5286663890
|  7>  H     -4.2579249990    -19.3065094056    -12.0816581229
|  8>  H     -2.6109759258    -19.4077675658    -11.2591978335
|  9> *
| 10> 
| 11> %EPRNMR
| 12>         GTENSOR   TRUE
| 13>         NUCLEI    = ALL H {AISO, ADIP, AORB}
| 14>         NUCLEI    = ALL C {AISO, ADIP, AORB}
| 15> END
| 16> 
| 17> 
| 18>                          ****END OF INPUT****
================================================================================

                       ****************************
                       * Single Point Calculation *
                       ****************************

---------------------------------
CARTESIAN COORDINATES (ANGSTROEM)
---------------------------------
  C     -3.604137  -19.007343  -11.322419
  H     -3.761857  -18.208760  -10.528666
  H     -4.257925  -19.306509  -12.081658
  H     -2.610976  -19.407768  -11.259198

----------------------------
CARTESIAN COORDINATES (A.U.)
----------------------------
  NO LB      ZA    FRAG     MASS         X           Y           Z
   0 C     6.0000    0    12.011   -6.810832  -35.918673  -21.396272
   1 H     1.0000    0     1.008   -7.108879  -34.409570  -19.896296
   2 H     1.0000    0     1.008   -8.046312  -36.484015  -22.831025
   3 H     1.0000    0     1.008   -4.934029  -36.675366  -21.276800

--------------------------------
INTERNAL COORDINATES (ANGSTROEM)
--------------------------------
 C      0   0   0     0.000000000000     0.00000000     0.00000000
 H      1   0   0     1.136949463773     0.00000000     0.00000000
 H      1   2   0     1.045649511659   128.39937406     0.00000000
 H      1   2   3     1.072709367993   110.45549463   175.43143341

---------------------------
INTERNAL COORDINATES (A.U.)
---------------------------
 C      0   0   0     0.000000000000     0.00000000     0.00000000
 H      1   0   0     2.148523114640     0.00000000     0.00000000
 H      1   2   0     1.975991209104   128.39937406     0.00000000
 H      1   2   3     2.027126926798   110.45549463   175.43143341

---------------------
BASIS SET INFORMATION
---------------------
There are 2 groups of distinct atoms

 Group   1 Type C   : 12s8p2d1f contracted to 8s5p2d1f pattern {51111111/41111/11/1}
 Group   2 Type H   : 7s2p contracted to 5s2p pattern {31111/11}

Atom   0C    basis set group =>   1
Atom   1H    basis set group =>   2
Atom   2H    basis set group =>   2
Atom   3H    basis set group =>   2
---------------------------------
AUXILIARY/J BASIS SET INFORMATION
---------------------------------
There are 2 groups of distinct atoms

 Group   1 Type C   : 20s17p16d8f3g contracted to 20s17p16d8f3g pattern {11111111111111111111/11111111111111111/1111111111111111/11111111/111}
 Group   2 Type H   : 17s7p3d contracted to 17s7p3d pattern {11111111111111111/1111111/111}

Atom   0C    basis set group =>   1
Atom   1H    basis set group =>   2
Atom   2H    basis set group =>   2
Atom   3H    basis set group =>   2
---------------------------------
AUXILIARY/C BASIS SET INFORMATION
---------------------------------
There are 2 groups of distinct atoms

 Group   1 Type C   : 20s17p16d8f3g contracted to 20s17p16d8f3g pattern {11111111111111111111/11111111111111111/1111111111111111/11111111/111}
 Group   2 Type H   : 17s7p3d contracted to 17s7p3d pattern {11111111111111111/1111111/111}

Atom   0C    basis set group =>   1
Atom   1H    basis set group =>   2
Atom   2H    basis set group =>   2
Atom   3H    basis set group =>   2
----------------------------------
AUXILIARY/JK BASIS SET INFORMATION
----------------------------------
There are 2 groups of distinct atoms

 Group   1 Type C   : 20s17p16d8f3g contracted to 20s17p16d8f3g pattern {11111111111111111111/11111111111111111/1111111111111111/11111111/111}
 Group   2 Type H   : 17s7p3d contracted to 17s7p3d pattern {11111111111111111/1111111/111}

Atom   0C    basis set group =>   1
Atom   1H    basis set group =>   2
Atom   2H    basis set group =>   2
Atom   3H    basis set group =>   2


           ************************************************************
           *        Program running with 4 parallel MPI-processes     *
           *              working on a common directory               *
           ************************************************************
------------------------------------------------------------------------------
                           ORCA GTO INTEGRAL CALCULATION
                           -- RI-GTO INTEGRALS CHOSEN --
------------------------------------------------------------------------------
------------------------------------------------------------------------------
                   ___                                                        
                  /   \      - P O W E R E D   B Y -                         
                 /     \                                                     
                 |  |  |   _    _      __       _____    __    __             
                 |  |  |  | |  | |    /  \     |  _  \  |  |  /  |          
                  \  \/   | |  | |   /    \    | | | |  |  | /  /          
                 / \  \   | |__| |  /  /\  \   | |_| |  |  |/  /          
                |  |  |   |  __  | /  /__\  \  |    /   |      \           
                |  |  |   | |  | | |   __   |  |    \   |  |\   \          
                \     /   | |  | | |  |  |  |  | |\  \  |  | \   \       
                 \___/    |_|  |_| |__|  |__|  |_| \__\ |__|  \__/        
                                                                              
                      - O R C A' S   B I G   F R I E N D -                    
                                      &                                       
                       - I N T E G R A L  F E E D E R -                       
                                                                              
 v1 FN, 2020, v2 2021                                                         
------------------------------------------------------------------------------


Reading SHARK input file /home/rwth0701/scratch/cs681498/orcajob__30556187-mx16/4222.SHARKINP.tmp ... ok
----------------------
SHARK INTEGRAL PACKAGE
----------------------

Number of atoms                             ...      4
Number of basis functions                   ...     73
Number of shells                            ...     37
Maximum angular momentum                    ...      3
Integral batch strategy                     ... SHARK/LIBINT Hybrid
RI-J (if used) integral strategy            ... SPLIT-RIJ (Revised 2003 algorithm where possible)
Printlevel                                  ...      1
Contraction scheme used                     ... SEGMENTED contraction
Coulomb Range Separation                    ... NOT USED
Exchange Range Separation                   ... NOT USED
Finite Nucleus Model                        ... NOT USED
Auxiliary Coulomb fitting basis             ... AVAILABLE
   # of basis functions in Aux-J            ...    393
   # of shells in Aux-J                     ...    145
   Maximum angular momentum in Aux-J        ...      4
Auxiliary J/K fitting basis                 ... AVAILABLE
   # of basis functions in Aux-JK           ...    393
   # of shells in Aux-JK                    ...    145
   Maximum angular momentum in Aux-JK       ...      4
Auxiliary Correlation fitting basis         ... AVAILABLE
   # of basis functions in Aux-C            ...    393
   # of shells in Aux-C                     ...    145
   Maximum angular momentum in Aux-C        ...      4
Auxiliary 'external' fitting basis          ... NOT available
Integral threshold                          ...     1.000000e-10
Primitive cut-off                           ...     1.000000e-11
Primitive pair pre-selection threshold      ...     1.000000e-11

Calculating pre-screening integrals         ... done (  0.1 sec) Dimension = 37
Organizing shell pair data                  ... done (  0.0 sec)
Shell pair information
Total number of shell pairs                 ...       703
Shell pairs after pre-screening             ...       688
Total number of primitive shell pairs       ...      1300
Primitive shell pairs kept                  ...      1183
          la=0 lb=0:    261 shell pairs
          la=1 lb=0:    253 shell pairs
          la=1 lb=1:     66 shell pairs
          la=2 lb=0:     46 shell pairs
          la=2 lb=1:     22 shell pairs
          la=2 lb=2:      3 shell pairs
          la=3 lb=0:     23 shell pairs
          la=3 lb=1:     11 shell pairs
          la=3 lb=2:      2 shell pairs
          la=3 lb=3:      1 shell pairs

Calculating one electron integrals          ... done (  0.0 sec)
Calculating RI/J V-Matrix + Cholesky decomp.... done (  0.1 sec)
Calculating RI/JK V-Matrix + Cholesky decomp... done (  0.1 sec)
Calculating RI/C V-Matrix + Cholesky decomp.... done (  0.1 sec)
Calculating Nuclear repulsion               ... done (  0.0 sec) ENN=      9.636673327208 Eh

SHARK setup successfully completed in   0.8 seconds

Maximum memory used throughout the entire GTOINT-calculation: 13.7 MB


           ************************************************************
           *        Program running with 4 parallel MPI-processes     *
           *              working on a common directory               *
           ************************************************************
-------------------------------------------------------------------------------
                                 ORCA SCF
-------------------------------------------------------------------------------

------------
SCF SETTINGS
------------
Hamiltonian:
 Density Functional     Method          .... DFT(GTOs)
 Exchange Functional    Exchange        .... B88
   X-Alpha parameter    XAlpha          ....  0.666667
   Becke's b parameter  XBeta           ....  0.004200
 Correlation Functional Correlation     .... LYP
 LDA part of GGA corr.  LDAOpt          .... VWN-5
 Gradients option       PostSCFGGA      .... off
 Hybrid DFT is turned on
   Fraction HF Exchange ScalHFX         ....  0.200000
   Scaling of DF-GGA-X  ScalDFX         ....  0.720000
   Scaling of DF-GGA-C  ScalDFC         ....  0.810000
   Scaling of DF-LDA-C  ScalLDAC        ....  1.000000
   Perturbative correction              ....  0.000000
   Density functional embedding theory  .... OFF
   NL short-range parameter             ....  4.800000
 RI-approximation to the Coulomb term is turned on
   Number of AuxJ basis functions       .... 393
   RIJ-COSX (HFX calculated with COS-X)).... on


General Settings:
 Integral files         IntName         .... /home/rwth0701/scratch/cs681498/orcajob__30556187-mx16/4222
 Hartree-Fock type      HFTyp           .... UHF
 Total Charge           Charge          ....    0
 Multiplicity           Mult            ....    2
 Number of Electrons    NEL             ....    9
 Basis Dimension        Dim             ....   73
 Nuclear Repulsion      ENuc            ....      9.6366733272 Eh

Convergence Acceleration:
 DIIS                   CNVDIIS         .... on
   Start iteration      DIISMaxIt       ....    12
   Startup error        DIISStart       ....  0.200000
   # of expansion vecs  DIISMaxEq       ....     5
   Bias factor          DIISBfac        ....   1.050
   Max. coefficient     DIISMaxC        ....  10.000
 Trust-Rad. Augm. Hess. CNVTRAH         .... auto
   Auto Start mean grad. ratio tolernc. ....  1.125000
   Auto Start start iteration           ....    20
   Auto Start num. interpolation iter.  ....    10
   Max. Number of Micro iterations      ....    16
   Max. Number of Macro iterations      .... Maxiter - #DIIS iter
   Number of Davidson start vectors     ....     2
   Converg. threshold I  (grad. norm)   ....   5.000e-05
   Converg. threshold II (energy diff.) ....   1.000e-06
   Grad. Scal. Fac. for Micro threshold ....   0.100
   Minimum threshold for Micro iter.    ....   0.010
   NR start threshold (gradient norm)   ....   0.001
   Initial trust radius                 ....   0.400
   Minimum AH scaling param. (alpha)    ....   1.000
   Maximum AH scaling param. (alpha)    .... 1000.000
   Orbital update algorithm             .... Taylor
   White noise on init. David. guess    .... on
   Maximum white noise                  ....   0.010
   Quad. conv. algorithm                .... NR
 SOSCF                  CNVSOSCF        .... off
 Level Shifting         CNVShift        .... on
   Level shift para.    LevelShift      ....    0.2500
   Turn off err/grad.   ShiftErr        ....    0.0010
 Zerner damping         CNVZerner       .... off
 Static damping         CNVDamp         .... on
   Fraction old density DampFac         ....    0.7000
   Max. Damping (<1)    DampMax         ....    0.9800
   Min. Damping (>=0)   DampMin         ....    0.0000
   Turn off err/grad.   DampErr         ....    0.1000
 Fernandez-Rico         CNVRico         .... off

SCF Procedure:
 Maximum # iterations   MaxIter         ....   125
 SCF integral mode      SCFMode         .... Direct
   Integral package                     .... SHARK and LIBINT hybrid scheme
 Reset frequency        DirectResetFreq ....    20
 Integral Threshold     Thresh          ....  1.000e-10 Eh
 Primitive CutOff       TCut            ....  1.000e-11 Eh

Convergence Tolerance:
 Convergence Check Mode ConvCheckMode   .... Total+1el-Energy
 Convergence forced     ConvForced      .... 0
 Energy Change          TolE            ....  1.000e-06 Eh
 1-El. energy change                    ....  1.000e-03 Eh
 DIIS Error             TolErr          ....  1.000e-06


Diagonalization of the overlap matrix:
Smallest eigenvalue                        ... 1.587e-03
Time for diagonalization                   ...    0.001 sec
Threshold for overlap eigenvalues          ... 1.000e-08
Number of eigenvalues below threshold      ... 0
Time for construction of square roots      ...    0.014 sec
Total time needed                          ...    0.016 sec

Time for model grid setup =    0.105 sec

------------------------------
INITIAL GUESS: MODEL POTENTIAL
------------------------------
Loading Hartree-Fock densities                     ... done
Calculating cut-offs                               ... done
Initializing the effective Hamiltonian             ... done
Setting up the integral package (SHARK)            ... done
Starting the Coulomb interaction                   ... done (   0.1 sec)
Reading the grid                                   ... done
Mapping shells                                     ... done
Starting the XC term evaluation                    ... done (   0.0 sec)
  promolecular density results
     # of electrons  =      8.998712590
     EX              =     -5.968871455
     EC              =     -0.260202413
     EX+EC           =     -6.229073868
Transforming the Hamiltonian                       ... done (   0.0 sec)
Diagonalizing the Hamiltonian                      ... done (   0.0 sec)
Back transforming the eigenvectors                 ... done (   0.0 sec)
Now organizing SCF variables                       ... done
                      ------------------
                      INITIAL GUESS DONE (   0.2 sec)
                      ------------------
-------------------
DFT GRID GENERATION
-------------------

General Integration Accuracy     IntAcc      ... 4.388
Radial Grid Type                 RadialGrid  ... OptM3 with GC (2021)
Angular Grid (max. ang.)         AngularGrid ... 4 (Lebedev-302)
Angular grid pruning method      GridPruning ... 4 (adaptive)
Weight generation scheme         WeightScheme... Becke
Basis function cutoff            BFCut       ... 1.0000e-10
Integration weight cutoff        WCut        ... 1.0000e-14
Angular grids for H and He will be reduced by one unit
Partially contracted basis set               ... off
Rotationally invariant grid construction     ... off

Total number of grid points                  ...    17060
Total number of batches                      ...      268
Average number of points per batch           ...       63
Average number of grid points per atom       ...     4265
Time for grid setup =    0.174 sec

--------------------
COSX GRID GENERATION
--------------------

GRIDX 1
-------
General Integration Accuracy     IntAcc      ... 3.816
Radial Grid Type                 RadialGrid  ... OptM3 with GC (2021)
Angular Grid (max. ang.)         AngularGrid ... 1 (Lebedev-50)
Angular grid pruning method      GridPruning ... 4 (adaptive)
Weight generation scheme         WeightScheme... Becke
Basis function cutoff            BFCut       ... 1.0000e-10
Integration weight cutoff        WCut        ... 1.0000e-14
Angular grids for H and He will be reduced by one unit
Partially contracted basis set               ... on
Rotationally invariant grid construction     ... off

Total number of grid points                  ...     2149
Total number of batches                      ...       35
Average number of points per batch           ...       61
Average number of grid points per atom       ...      537
UseSFitting                                  ... on

GRIDX 2
-------
General Integration Accuracy     IntAcc      ... 4.020
Radial Grid Type                 RadialGrid  ... OptM3 with GC (2021)
Angular Grid (max. ang.)         AngularGrid ... 2 (Lebedev-110)
Angular grid pruning method      GridPruning ... 4 (adaptive)
Weight generation scheme         WeightScheme... Becke
Basis function cutoff            BFCut       ... 1.0000e-10
Integration weight cutoff        WCut        ... 1.0000e-14
Angular grids for H and He will be reduced by one unit
Partially contracted basis set               ... on
Rotationally invariant grid construction     ... off

Total number of grid points                  ...     5050
Total number of batches                      ...       81
Average number of points per batch           ...       62
Average number of grid points per atom       ...     1262
UseSFitting                                  ... on

GRIDX 3
-------
General Integration Accuracy     IntAcc      ... 4.338
Radial Grid Type                 RadialGrid  ... OptM3 with GC (2021)
Angular Grid (max. ang.)         AngularGrid ... 3 (Lebedev-194)
Angular grid pruning method      GridPruning ... 4 (adaptive)
Weight generation scheme         WeightScheme... Becke
Basis function cutoff            BFCut       ... 1.0000e-10
Integration weight cutoff        WCut        ... 1.0000e-14
Angular grids for H and He will be reduced by one unit
Partially contracted basis set               ... on
Rotationally invariant grid construction     ... off

Total number of grid points                  ...    11749
Total number of batches                      ...      186
Average number of points per batch           ...       63
Average number of grid points per atom       ...     2937
UseSFitting                                  ... on

Time for X-Grid setup             =    0.273 sec

--------------
SCF ITERATIONS
--------------
ITER       Energy         Delta-E        Max-DP      RMS-DP      [F,P]     Damp
               ***  Starting incremental Fock matrix formation  ***
  0    -39.7819111361   0.000000000000 0.01527412  0.00049471  0.0882176 0.7000
  1    -39.8006900402  -0.018778904035 0.00955503  0.00036910  0.0449580 0.7000
                               ***Turning on DIIS***
  2    -39.8090006146  -0.008310574408 0.01566128  0.00064497  0.0177528 0.0000
  3    -39.8203488871  -0.011348272562 0.00679825  0.00027750  0.0259641 0.0000
  4    -39.8238233038  -0.003474416673 0.00254923  0.00007717  0.0048405 0.0000
  5    -39.8239651445  -0.000141840719 0.00089811  0.00003218  0.0013961 0.0000
  6    -39.8239828794  -0.000017734907 0.00048968  0.00002509  0.0005179 0.0000
               *** Restarting incremental Fock matrix formation ***
                                   *** Resetting DIIS ***
  7    -39.8239858257  -0.000002946307 0.00009276  0.00000295  0.0000748 0.0000
                 **** Energy Check signals convergence ****

               *****************************************************
               *                     SUCCESS                       *
               *           SCF CONVERGED AFTER   8 CYCLES          *
               *****************************************************

Old exchange energy                            =     -1.240164693 Eh
New exchange energy                            =     -1.240164992 Eh
Exchange energy change after final integration =     -0.000000299 Eh
Total energy after final integration           =    -39.823986205 Eh
Final COS-X integration done in                =     0.222 sec

----------------
TOTAL SCF ENERGY
----------------

Total Energy       :          -39.82398620 Eh           -1083.66576 eV

Components:
Nuclear Repulsion  :            9.63667333 Eh             262.22721 eV
Electronic Energy  :          -49.46065953 Eh           -1345.89297 eV
One Electron Energy:          -71.57557628 Eh           -1947.67045 eV
Two Electron Energy:           22.11491675 Eh             601.77748 eV
Max COSX asymmetry :            0.00000005 Eh               0.00000 eV

Virial components:
Potential Energy   :          -79.43330995 Eh           -2161.49025 eV
Kinetic Energy     :           39.60932375 Eh            1077.82449 eV
Virial Ratio       :            2.00541949


DFT components:
N(Alpha)           :        4.999999027763 electrons
N(Beta)            :        3.999999884902 electrons
N(Total)           :        8.999998912665 electrons
E(X)               :       -4.909035912124 Eh       
E(C)               :       -0.309441916401 Eh       
E(XC)              :       -5.218477828525 Eh       
DFET-embed. en.    :        0.000000000000 Eh       

---------------
SCF CONVERGENCE
---------------

  Last Energy change         ...   -8.0288e-08  Tolerance :   1.0000e-06
  Last MAX-Density change    ...    0.0000e+00  Tolerance :   1.0000e-05
  Last RMS-Density change    ...    0.0000e+00  Tolerance :   1.0000e-06
  Last DIIS Error            ...    6.0702e-05  Tolerance :   1.0000e-06

             **** THE GBW FILE WAS UPDATED (/home/rwth0701/scratch/cs681498/orcajob__30556187-mx16/4222.gbw) ****
             **** DENSITY /home/rwth0701/scratch/cs681498/orcajob__30556187-mx16/4222.scfp WAS UPDATED ****
             **** ENERGY FILE WAS UPDATED (/home/rwth0701/scratch/cs681498/orcajob__30556187-mx16/4222.en.tmp) ****
----------------------
UHF SPIN CONTAMINATION
----------------------

Warning: in a DFT calculation there is little theoretical justification to 
         calculate <S**2> as in Hartree-Fock theory. We will do it anyways
         but you should keep in mind that the values have only limited relevance

Expectation value of <S**2>     :     0.753705
Ideal value S*(S+1) for S=0.5   :     0.750000
Deviation                       :     0.003705

             **** THE GBW FILE WAS UPDATED (/home/rwth0701/scratch/cs681498/orcajob__30556187-mx16/4222.gbw) ****
             **** DENSITY /home/rwth0701/scratch/cs681498/orcajob__30556187-mx16/4222.scfp WAS UPDATED ****
----------------
ORBITAL ENERGIES
----------------
                 SPIN UP ORBITALS
  NO   OCC          E(Eh)            E(eV) 
   0   1.0000     -10.185698      -277.1669 
   1   1.0000      -0.687347       -18.7037 
   2   1.0000      -0.439661       -11.9638 
   3   1.0000      -0.403240       -10.9727 
   4   1.0000      -0.235083        -6.3969 
   5   0.0000       0.000683         0.0186 
   6   0.0000       0.034790         0.9467 
   7   0.0000       0.038511         1.0479 
   8   0.0000       0.047442         1.2910 
   9   0.0000       0.082291         2.2393 
  10   0.0000       0.094252         2.5647 
  11   0.0000       0.099106         2.6968 
  12   0.0000       0.218417         5.9434 
  13   0.0000       0.224698         6.1143 
  14   0.0000       0.247410         6.7324 
  15   0.0000       0.276087         7.5127 
  16   0.0000       0.290479         7.9043 
  17   0.0000       0.325281         8.8513 
  18   0.0000       0.342336         9.3154 
  19   0.0000       0.549127        14.9425 
  20   0.0000       0.567068        15.4307 
  21   0.0000       0.734025        19.9738 
  22   0.0000       0.741757        20.1842 
  23   0.0000       0.769357        20.9353 
  24   0.0000       0.826170        22.4812 
  25   0.0000       0.888562        24.1790 
  26   0.0000       0.903486        24.5851 
  27   0.0000       0.937910        25.5218 
  28   0.0000       0.959053        26.0972 
  29   0.0000       1.050347        28.5814 
  30   0.0000       1.066415        29.0186 
  31   0.0000       1.124200        30.5910 
  32   0.0000       1.167040        31.7568 
  33   0.0000       1.169345        31.8195 
  34   0.0000       1.451194        39.4890 
  35   0.0000       1.459375        39.7116 
  36   0.0000       1.516547        41.2673 
  37   0.0000       1.707761        46.4705 
  38   0.0000       1.726141        46.9707 
  39   0.0000       1.770815        48.1863 
  40   0.0000       2.712816        73.8195 
  41   0.0000       2.737803        74.4994 
  42   0.0000       2.855458        77.7010 
  43   0.0000       2.896198        78.8095 
  44   0.0000       2.951372        80.3109 
  45   0.0000       2.971937        80.8705 
  46   0.0000       2.986407        81.2643 
  47   0.0000       3.150405        85.7269 
  48   0.0000       3.169340        86.2421 
  49   0.0000       3.246641        88.3456 
  50   0.0000       3.261467        88.7490 
  51   0.0000       3.675364       100.0117 
  52   0.0000       3.716169       101.1221 
  53   0.0000       3.819439       103.9322 
  54   0.0000       3.923730       106.7701 
  55   0.0000       3.939943       107.2113 
  56   0.0000       4.059738       110.4711 
  57   0.0000       4.129510       112.3697 
  58   0.0000       4.161138       113.2303 
  59   0.0000       4.176856       113.6580 
  60   0.0000       4.614565       125.5687 
  61   0.0000       5.005743       136.2132 
  62   0.0000       5.362062       145.9091 
  63   0.0000       5.435982       147.9206 
  64   0.0000       5.570075       151.5694 
  65   0.0000       6.019580       163.8011 
  66   0.0000       6.174899       168.0275 
  67   0.0000       7.739726       210.6086 
  68   0.0000      29.068866       791.0040 
  69   0.0000      37.106966      1009.7319 
  70   0.0000      37.208966      1012.5074 
  71   0.0000      37.243623      1013.4505 
  72   0.0000     133.526401      3633.4381 

                 SPIN DOWN ORBITALS
  NO   OCC          E(Eh)            E(eV) 
   0   1.0000     -10.171225      -276.7731 
   1   1.0000      -0.647890       -17.6300 
   2   1.0000      -0.430261       -11.7080 
   3   1.0000      -0.393744       -10.7143 
   4   0.0000      -0.077472        -2.1081 
   5   0.0000       0.003874         0.1054 
   6   0.0000       0.034462         0.9378 
   7   0.0000       0.038124         1.0374 
   8   0.0000       0.060697         1.6516 
   9   0.0000       0.084398         2.2966 
  10   0.0000       0.097888         2.6637 
  11   0.0000       0.100302         2.7293 
  12   0.0000       0.219748         5.9796 
  13   0.0000       0.226270         6.1571 
  14   0.0000       0.265931         7.2363 
  15   0.0000       0.296594         8.0707 
  16   0.0000       0.310521         8.4497 
  17   0.0000       0.329939         8.9781 
  18   0.0000       0.355963         9.6862 
  19   0.0000       0.575558        15.6617 
  20   0.0000       0.594457        16.1760 
  21   0.0000       0.735584        20.0163 
  22   0.0000       0.743866        20.2416 
  23   0.0000       0.794782        21.6271 
  24   0.0000       0.825137        22.4531 
  25   0.0000       0.892771        24.2935 
  26   0.0000       0.908902        24.7325 
  27   0.0000       0.954325        25.9685 
  28   0.0000       0.977880        26.6095 
  29   0.0000       1.075999        29.2794 
  30   0.0000       1.120776        30.4979 
  31   0.0000       1.147267        31.2187 
  32   0.0000       1.179956        32.1082 
  33   0.0000       1.182038        32.1649 
  34   0.0000       1.462052        39.7845 
  35   0.0000       1.475357        40.1465 
  36   0.0000       1.527178        41.5566 
  37   0.0000       1.713898        46.6375 
  38   0.0000       1.734957        47.2106 
  39   0.0000       1.777615        48.3714 
  40   0.0000       2.753816        74.9351 
  41   0.0000       2.778313        75.6017 
  42   0.0000       2.859879        77.8213 
  43   0.0000       2.952522        80.3422 
  44   0.0000       2.958671        80.5095 
  45   0.0000       2.997736        81.5725 
  46   0.0000       3.038810        82.6902 
  47   0.0000       3.201799        87.1254 
  48   0.0000       3.219614        87.6101 
  49   0.0000       3.304095        89.9090 
  50   0.0000       3.318548        90.3023 
  51   0.0000       3.676061       100.0307 
  52   0.0000       3.775449       102.7352 
  53   0.0000       3.819228       103.9265 
  54   0.0000       3.924829       106.8000 
  55   0.0000       3.955208       107.6267 
  56   0.0000       4.076125       110.9170 
  57   0.0000       4.132934       112.4628 
  58   0.0000       4.179715       113.7358 
  59   0.0000       4.185871       113.9034 
  60   0.0000       4.615082       125.5828 
  61   0.0000       5.026023       136.7650 
  62   0.0000       5.362020       145.9080 
  63   0.0000       5.434748       147.8870 
  64   0.0000       5.567155       151.4900 
  65   0.0000       6.021960       163.8659 
  66   0.0000       6.178305       168.1202 
  67   0.0000       7.774962       211.5675 
  68   0.0000      29.095729       791.7350 
  69   0.0000      37.094487      1009.3923 
  70   0.0000      37.197453      1012.1941 
  71   0.0000      37.231969      1013.1334 
  72   0.0000     133.534290      3633.6528 

                    ********************************
                    * MULLIKEN POPULATION ANALYSIS *
                    ********************************

--------------------------------------------
MULLIKEN ATOMIC CHARGES AND SPIN POPULATIONS
--------------------------------------------
   0 C :   -0.429307    1.104603
   1 H :    0.139258   -0.038832
   2 H :    0.152334   -0.031074
   3 H :    0.137715   -0.034697
Sum of atomic charges         :   -0.0000000
Sum of atomic spin populations:    1.0000000

-----------------------------------------------------
MULLIKEN REDUCED ORBITAL CHARGES AND SPIN POPULATIONS
-----------------------------------------------------
CHARGE
  0 C s       :     3.333112  s :     3.333112
      pz      :     1.016672  p :     3.068862
      px      :     1.045303
      py      :     1.006888
      dz2     :     0.003282  d :     0.024300
      dxz     :     0.004901
      dyz     :     0.006815
      dx2y2   :     0.005507
      dxy     :     0.003795
      f0      :     0.000100  f :     0.003033
      f+1     :     0.000702
      f-1     :     0.000544
      f+2     :     0.000635
      f-2     :     0.000350
      f+3     :     0.000134
      f-3     :     0.000568
  1 H s       :     0.835932  s :     0.835932
      pz      :     0.008964  p :     0.024810
      px      :     0.006383
      py      :     0.009463
  2 H s       :     0.818493  s :     0.818493
      pz      :     0.010615  p :     0.029172
      px      :     0.008728
      py      :     0.009828
  3 H s       :     0.835383  s :     0.835383
      pz      :     0.007997  p :     0.026902
      px      :     0.009891
      py      :     0.009014

SPIN
  0 C s       :     0.067832  s :     0.067832
      pz      :     0.385765  p :     1.041109
      px      :     0.149570
      py      :     0.505774
      dz2     :     0.000338  d :    -0.002999
      dxz     :    -0.000628
      dyz     :    -0.002476
      dx2y2   :    -0.000122
      dxy     :    -0.000112
      f0      :    -0.000084  f :    -0.001339
      f+1     :    -0.000155
      f-1     :    -0.000407
      f+2     :    -0.000278
      f-2     :    -0.000109
      f+3     :    -0.000085
      f-3     :    -0.000220
  1 H s       :    -0.047976  s :    -0.047976
      pz      :     0.003648  p :     0.009144
      px      :     0.000877
      py      :     0.004619
  2 H s       :    -0.042590  s :    -0.042590
      pz      :     0.004245  p :     0.011515
      px      :     0.001365
      py      :     0.005906
  3 H s       :    -0.044474  s :    -0.044474
      pz      :     0.003624  p :     0.009777
      px      :     0.001079
      py      :     0.005074


                     *******************************
                     * LOEWDIN POPULATION ANALYSIS *
                     *******************************

-------------------------------------------
LOEWDIN ATOMIC CHARGES AND SPIN POPULATIONS
-------------------------------------------
   0 C :   -0.152607    0.909356
   1 H :    0.075106    0.021725
   2 H :    0.033020    0.036549
   3 H :    0.044481    0.032370

----------------------------------------------------
LOEWDIN REDUCED ORBITAL CHARGES AND SPIN POPULATIONS
----------------------------------------------------
CHARGE
  0 C s       :     2.884482  s :     2.884482
      pz      :     1.041557  p :     3.169569
      px      :     1.122521
      py      :     1.005491
      dz2     :     0.014236  d :     0.090928
      dxz     :     0.019455
      dyz     :     0.019518
      dx2y2   :     0.021847
      dxy     :     0.015873
      f0      :     0.000223  f :     0.007629
      f+1     :     0.001587
      f-1     :     0.001672
      f+2     :     0.001475
      f-2     :     0.000834
      f+3     :     0.000394
      f-3     :     0.001444
  1 H s       :     0.795990  s :     0.795990
      pz      :     0.048284  p :     0.128905
      px      :     0.029078
      py      :     0.051542
  2 H s       :     0.810360  s :     0.810360
      pz      :     0.060284  p :     0.156620
      px      :     0.052324
      py      :     0.044012
  3 H s       :     0.806223  s :     0.806223
      pz      :     0.036976  p :     0.149296
      px      :     0.067919
      py      :     0.044401

SPIN
  0 C s       :     0.019720  s :     0.019720
      pz      :     0.334772  p :     0.898494
      px      :     0.117778
      py      :     0.445944
      dz2     :    -0.000567  d :    -0.007541
      dxz     :    -0.001516
      dyz     :    -0.003200
      dx2y2   :    -0.001354
      dxy     :    -0.000904
      f0      :    -0.000051  f :    -0.001318
      f+1     :    -0.000224
      f-1     :    -0.000385
      f+2     :    -0.000285
      f-2     :    -0.000055
      f+3     :    -0.000060
      f-3     :    -0.000259
  1 H s       :    -0.019405  s :    -0.019405
      pz      :     0.016016  p :     0.041130
      px      :     0.004771
      py      :     0.020342
  2 H s       :    -0.015982  s :    -0.015982
      pz      :     0.020249  p :     0.052531
      px      :     0.007881
      py      :     0.024401
  3 H s       :    -0.016126  s :    -0.016126
      pz      :     0.016655  p :     0.048496
      px      :     0.009075
      py      :     0.022766


                      *****************************
                      * MAYER POPULATION ANALYSIS *
                      *****************************

  NA   - Mulliken gross atomic population
  ZA   - Total nuclear charge
  QA   - Mulliken gross atomic charge
  VA   - Mayer's total valence
  BVA  - Mayer's bonded valence
  FA   - Mayer's free valence

  ATOM       NA         ZA         QA         VA         BVA        FA
  0 C      6.4293     6.0000    -0.4293     3.8767     2.9314     0.9453
  1 H      0.8607     1.0000     0.1393     0.9832     0.9809     0.0023
  2 H      0.8477     1.0000     0.1523     0.9868     0.9849     0.0019
  3 H      0.8623     1.0000     0.1377     0.9796     0.9777     0.0020

  Mayer bond orders larger than 0.100000
B(  0-C ,  1-H ) :   0.9770 B(  0-C ,  2-H ) :   0.9765 B(  0-C ,  3-H ) :   0.9780 


-------
TIMINGS
-------

Total SCF time: 0 days 0 hours 0 min 5 sec 

Total time                  ....       5.633 sec
Sum of individual times     ....       4.935 sec  ( 87.6%)

Fock matrix formation       ....       4.071 sec  ( 72.3%)
  Split-RI-J                ....       0.491 sec  ( 12.1% of F)
  Chain of spheres X        ....       1.098 sec  ( 27.0% of F)
  XC integration            ....       1.643 sec  ( 40.4% of F)
    Basis function eval.    ....       0.117 sec  (  7.1% of XC)
    Density eval.           ....       0.127 sec  (  7.7% of XC)
    XC-Functional eval.     ....       0.118 sec  (  7.2% of XC)
    XC-Potential eval.      ....       0.162 sec  (  9.9% of XC)
Diagonalization             ....       0.053 sec  (  0.9%)
Density matrix formation    ....       0.003 sec  (  0.1%)
Population analysis         ....       0.065 sec  (  1.2%)
Initial guess               ....       0.114 sec  (  2.0%)
Orbital Transformation      ....       0.000 sec  (  0.0%)
Orbital Orthonormalization  ....       0.000 sec  (  0.0%)
DIIS solution               ....       0.076 sec  (  1.3%)
Grid generation             ....       0.552 sec  (  9.8%)

Maximum memory used throughout the entire SCF-calculation: 59.0 MB

-------------------------   --------------------
FINAL SINGLE POINT ENERGY       -39.823986204574
-------------------------   --------------------

   --->>> g-tensor requested, so NeedSOC=true

                            ***************************************
                            *     ORCA property calculations      *
                            ***************************************

                                    ---------------------
                                    Active property flags
                                    ---------------------
   (+) Dipole Moment
   (+) g-tensor
   (+) Nuclear properties (Hyperfine,Quadrupole)
   (+) Spin-Orbit Integrals are needed


------------------------------------------------------------------------------
                       ORCA ELECTRIC PROPERTIES CALCULATION
------------------------------------------------------------------------------

Dipole Moment Calculation                       ... on
Quadrupole Moment Calculation                   ... off
Polarizability Calculation                      ... off
GBWName                                         ... /home/rwth0701/scratch/cs681498/orcajob__30556187-mx16/4222.gbw
Electron density                                ... /home/rwth0701/scratch/cs681498/orcajob__30556187-mx16/4222.scfp
The origin for moment calculation is the CENTER OF MASS  = (-6.787817, -35.906131 -21.383889)

-------------
DIPOLE MOMENT
-------------
                                X             Y             Z
Electronic contribution:     -0.11142      -0.06682      -0.08466
Nuclear contribution   :      0.13615       0.07419       0.07325
                        -----------------------------------------
Total Dipole Moment    :      0.02473       0.00737      -0.01141
                        -----------------------------------------
Magnitude (a.u.)       :      0.02822
Magnitude (Debye)      :      0.07172



--------------------
Rotational spectrum 
--------------------
 
Rotational constants in cm-1:    10.519710     8.598787     4.735231 
Rotational constants in MHz : 315372.959058 257785.135967 141958.644511 

 Dipole components along the rotational axes: 
x,y,z [a.u.] :     0.003137     0.018771    -0.020830 
x,y,z [Debye]:     0.007974     0.047713    -0.052947 

 


           ************************************************************
           *        Program running with 4 parallel MPI-processes     *
           *              working on a common directory               *
           ************************************************************
------------------------------------------------------------------------------
                         ORCA SPIN-ORBIT COUPLING CALCULATION
------------------------------------------------------------------------------

GBW file                                    ... /home/rwth0701/scratch/cs681498/orcajob__30556187-mx16/4222.gbw
Input density                               ... /home/rwth0701/scratch/cs681498/orcajob__30556187-mx16/4222.scfp
Output integrals                            ... /home/rwth0701/scratch/cs681498/orcajob__30556187-mx16/4222
Operator type                               ... Mean-field/Effective potential
   One-Electron Terms                       ... 1
   Coulomb Contribution                     ... 3
   Exchange Contribution                    ... 3
   Correlation Contribution                 ... 0
   Maximum number of centers                ... 4
SHARK 2-electron RIJ-SOMF                   ... done (  0.2 sec)
SHARK 1-electron  MaxCenter=4               ... done (  0.0 sec)
SHARK 2-electron DoJ,X=0,1 MaxCenter=1      ... done (  0.1 sec)

Maximum memory used throughout the entire SOC-calculation: 11.3 MB
Total time for SOC:  3.019


           ************************************************************
           *        Program running with 4 parallel MPI-processes     *
           *              working on a common directory               *
           ************************************************************
------------------------------------------------------------------------------
                                ORCA EPR/NMR CALCULATION
------------------------------------------------------------------------------

GBWName                      ... /home/rwth0701/scratch/cs681498/orcajob__30556187-mx16/4222.gbw
Electron density             ... /home/rwth0701/scratch/cs681498/orcajob__30556187-mx16/4222.scfp
Spin density                 ... /home/rwth0701/scratch/cs681498/orcajob__30556187-mx16/4222.scfr
Spin-orbit integrals         ... /home/rwth0701/scratch/cs681498/orcajob__30556187-mx16/4222
Treatment of gauge           ... GIAO (approximations 1/2el = 0,0)
Details of the CP(SCF) procedure:
       Solver   = POPLE   
       MaxIter  =    64   
       Tolerance=    1.000e-03
       COSX Grid=     1   
       Op-0     =   0-  4 =>   5- 72
       Op-1     =   0-  3 =>   4- 72
Multiplicity                 ... 2
g-tensor                     ... 1
NMR chemical shifts          ... 0
NMR spin-spin couplings      ... 0
NMR spectrum                 ... 0
Number of nuclei for epr/nmr ... 4
   Nucleus:   1H 
       Hyperfine : Isotope=    1 I=   0.500 P= 533.551
       Quadrupole: Isotope=    2 I=   1.000 Q=   0.003
       Spin-Orbit: Zeff=   1.000
       Nuclear Spin-Spin: Gn=   0.000
       EPRNMR Input: 
       rho(0)=N f(grad)=N a(iso)=Y a(dip)=Y a(orb)=Y sigma(nmr)=N spin-spin(nmr)=all-N,DSO-N,PSO-N,FC-N,SD-N
   Nucleus:   2H 
       Hyperfine : Isotope=    1 I=   0.500 P= 533.551
       Quadrupole: Isotope=    2 I=   1.000 Q=   0.003
       Spin-Orbit: Zeff=   1.000
       Nuclear Spin-Spin: Gn=   0.000
       EPRNMR Input: 
       rho(0)=N f(grad)=N a(iso)=Y a(dip)=Y a(orb)=Y sigma(nmr)=N spin-spin(nmr)=all-N,DSO-N,PSO-N,FC-N,SD-N
   Nucleus:   3H 
       Hyperfine : Isotope=    1 I=   0.500 P= 533.551
       Quadrupole: Isotope=    2 I=   1.000 Q=   0.003
       Spin-Orbit: Zeff=   1.000
       Nuclear Spin-Spin: Gn=   0.000
       EPRNMR Input: 
       rho(0)=N f(grad)=N a(iso)=Y a(dip)=Y a(orb)=Y sigma(nmr)=N spin-spin(nmr)=all-N,DSO-N,PSO-N,FC-N,SD-N
   Nucleus:   0C 
       Hyperfine : Isotope=   13 I=   0.500 P= 134.190
       Quadrupole: Isotope=   13 I=   0.500 Q=   0.000
       Spin-Orbit: Zeff=   3.600
       Nuclear Spin-Spin: Gn=   0.000
       EPRNMR Input: 
       rho(0)=N f(grad)=N a(iso)=Y a(dip)=Y a(orb)=Y sigma(nmr)=N spin-spin(nmr)=all-N,DSO-N,PSO-N,FC-N,SD-N
Forming RHS of the CP-SCF equations         ... 
Calculating right hand sides for GIAO treatment        ... 
  Entering RightHandSide GIAO. ScalHFX=    0.2000 NeedHFX=1
     -> 1-electron GIAO integrals will be done analytically
     -> RIJCOSX used in SCF. Same chosen for GIAO calculation.
     Making grid for GIAO integrations   ...

GRID GIAO
---------

General Integration Accuracy     IntAcc      ... 4.388
Radial Grid Type                 RadialGrid  ... OptM3 with GC (2021)
Angular Grid (max. ang.)         AngularGrid ... 4 (Lebedev-302)
Angular grid pruning method      GridPruning ... 4 (adaptive)
Weight generation scheme         WeightScheme... Becke
Basis function cutoff            BFCut       ... 1.0000e-10
Integration weight cutoff        WCut        ... 1.0000e-14
Angular grids for H and He will be reduced by one unit
Partially contracted basis set               ... off
Rotationally invariant grid construction     ... off

Total number of grid points                  ...    17060
Total number of batches                      ...      268
Average number of points per batch           ...       63
Average number of grid points per atom       ...     4265

  One-electron GIAO integrals (SHARK)     ... done
  Calculating G(B)[P]                     ... (RI-J: SHARK-ok) (COSX-ok) (add-J+K:ok) => dG/dB done
  DFT XC-terms                            ... done
  Extracting occupied and virtual blocks  ... 
  Operator  0  NO=   5 NV=  68 
  Operator  1  NO=   4 NV=  69 
  Transforming and RHS contribution       ... done
  Adding eps_i * S(B)_ai terms            ... done
  Projecting overlap derivatives          ... done
  Building G[dS/dB_ij] (COSX)             ... done
  Transforming to MO basis                ... done
  Summing G[dS/dB_ij] into RHS contribs.  ... done

  GIAO profiling information: 
    Total GIAO time               ...       1.0 sec
       GIAO 1-electron integrals  ...       0.0 sec (  2.2%)
       GIAO G(dS/dB) terms        ...       0.1 sec ( 12.3%)
       GIAO RI-J                  ...       0.1 sec ( 11.6%)
       GIAO COSX                  ...       0.2 sec ( 18.9%)
       GIAO XC-terms              ...       0.4 sec ( 36.6%)

  GIAO right hand side done


------------------------------------------------------------------------------
                           ORCA CP-SCF CALCULATION
------------------------------------------------------------------------------

Input orbitals are from        ... /home/rwth0701/scratch/cs681498/orcajob__30556187-mx16/4222.gbw
Input Perturbation             ... /home/rwth0701/scratch/cs681498/orcajob__30556187-mx16/4222.pin.tmp
Wavefunction output            ... /home/rwth0701/scratch/cs681498/orcajob__30556187-mx16/4222.pout.tmp
Perturbation mode              ... Imaginary perturbation
Solver                         ... POPLE
Max. number of iterations      ... 64
Convergence tolerance          ... 1.000e-03
Integral handling              ... Direct
DFT GridXC                     ... 1
COSX GridX                     ... 1
COSX IntAccX                   ... 3.067
COSX Algorithm                 ... Auto
Number of perturbations        ... 3
Number of operators            ... 2
Orbital ranges used for CP-SCF:
 Operator 0:  Orbitals   0...  4  to   5... 72
 Operator 1:  Orbitals   0...  3  to   4... 72
Variables per perturbation     ... 616
DFT calculation                         ... on
XC functional terms                     ... off
Hybrid DFT                              ... on
   Exchange mixing (SCF)                ...  0.200
   Exchange mixing (CP-SCF)             ...  0.200
   GGA exch. scaling(SCF)               ...  0.720
   GGA exch. scaling (CP-SCF)           ...  0.720
   GGA corr. scaling (SCF)              ...  0.810
   GGA corr. scaling (CP-SCF)           ...  0.810

CP-SCF GRID
-----------

General Integration Accuracy     IntAcc      ... 3.467
Radial Grid Type                 RadialGrid  ... OptM3 with GC (2021)
Angular Grid (max. ang.)         AngularGrid ... 1 (Lebedev-50)
Angular grid pruning method      GridPruning ... 4 (adaptive)
Weight generation scheme         WeightScheme... Becke
Basis function cutoff            BFCut       ... 1.0000e-10
Integration weight cutoff        WCut        ... 1.0000e-14
Angular grids for H and He will be reduced by one unit
Partially contracted basis set               ... off
Rotationally invariant grid construction     ... off

Total number of grid points                  ...     2341
Total number of batches                      ...       38
Average number of points per batch           ...       61
Average number of grid points per atom       ...      585

CP-SCF GRIDX
------------

General Integration Accuracy     IntAcc      ... 3.067
Radial Grid Type                 RadialGrid  ... OptM3 with GC (2021)
Angular Grid (max. ang.)         AngularGrid ... 1 (Lebedev-50)
Angular grid pruning method      GridPruning ... 4 (adaptive)
Weight generation scheme         WeightScheme... Becke
Basis function cutoff            BFCut       ... 1.0000e-10
Integration weight cutoff        WCut        ... 1.0000e-14
Angular grids for H and He will be reduced by one unit
Partially contracted basis set               ... on
Rotationally invariant grid construction     ... off

Total number of grid points                  ...     1075
Total number of batches                      ...       20
Average number of points per batch           ...       53
Average number of grid points per atom       ...      269

Memory available               ... 1014.6 MB
Memory needed per perturbation ...   0.4 MB
Perturbations treated per batch... 3
Number of batches              ... 1
     CP-SCF ITERATION   0:   1.5139e+00 (   0.1 sec   0/  3 done)
     CP-SCF ITERATION   1:   3.1458e-02 (   0.1 sec   0/  3 done)
     CP-SCF ITERATION   2:   2.8372e-03 (   0.1 sec   0/  3 done)
     CP-SCF ITERATION   3:   1.2240e-04 (   0.1 sec   3/  3 done)
                    *** THE CP-SCF HAS CONVERGED ***

Forming final perturbed densities           ... done
Transforming perturbed density to AO basis  ... done

Magnetic field perturbation calculated in  1.533 sec
GIAO: Diamagnetic terms      (analytic)     (SHARK) ... done
GIAO: 1el-Paramagnetic terms (analytic)     (SHARK) ... done

-------------------
ELECTRONIC G-MATRIX
-------------------

 The g-matrix: 
              2.0028016   -0.0001493    0.0001505
             -0.0001571    2.0025699    0.0003008
              0.0001446    0.0002973    2.0026596

 gel          2.0023193    2.0023193    2.0023193
 gRMC        -0.0001271   -0.0001271   -0.0001271
 gDSO(tot)    0.0000344    0.0000708    0.0000711
 gPSO(tot)    0.0000064    0.0006148    0.0006570
             ----------   ----------   ----------
 g(tot)       2.0022330    2.0028778    2.0029203 iso=  2.0026770
 Delta-g     -0.0000863    0.0005585    0.0006010 iso=  0.0003577
 Orientation: 
  X           0.3499677   -0.9007999    0.2570646
  Y           0.7058527    0.4339931    0.5598410
  Z          -0.6158689   -0.0144765    0.7877156

Notes:  (1) The g-matrix conforms to the "BgS" spin Hamiltonian convention. 
        (2) The principal values are square roots of the eigenvalues of g*gT.
        (3) Orientations are eigenvectors of g*gT written as column vectors.
        (4) Individual contributions are projections of the full matrices onto the eigenvectors of g*gT.
        (5) Tensor is right-handed.


-----------------------------------------
ELECTRIC AND MAGNETIC HYPERFINE STRUCTURE
-----------------------------------------

 -----------------------------------------------------------
 Nucleus   1H : A:ISTP=    1 I=  0.5 P=533.5514 MHz/au**3
                Q:ISTP=    2 I=  1.0 Q=  0.0029 barn     
 -----------------------------------------------------------
 Solving for nuclear perturbation:
Forming RHS of the CP-SCF equations         ... 
Calc. nucleus orbit integrals (SHARK)       ... done

------------------------------------------------------------------------------
                           ORCA CP-SCF CALCULATION
------------------------------------------------------------------------------

Input orbitals are from        ... /home/rwth0701/scratch/cs681498/orcajob__30556187-mx16/4222.gbw
Input Perturbation             ... /home/rwth0701/scratch/cs681498/orcajob__30556187-mx16/4222.pin.tmp
Wavefunction output            ... /home/rwth0701/scratch/cs681498/orcajob__30556187-mx16/4222.pout.tmp
Perturbation mode              ... Imaginary perturbation
Solver                         ... POPLE
Max. number of iterations      ... 64
Convergence tolerance          ... 1.000e-03
Integral handling              ... Direct
DFT GridXC                     ... 1
COSX GridX                     ... 1
COSX IntAccX                   ... 3.067
COSX Algorithm                 ... Auto
Number of perturbations        ... 3
Number of operators            ... 2
Orbital ranges used for CP-SCF:
 Operator 0:  Orbitals   0...  4  to   5... 72
 Operator 1:  Orbitals   0...  3  to   4... 72
Variables per perturbation     ... 616
DFT calculation                         ... on
XC functional terms                     ... off
Hybrid DFT                              ... on
   Exchange mixing (SCF)                ...  0.200
   Exchange mixing (CP-SCF)             ...  0.200
   GGA exch. scaling(SCF)               ...  0.720
   GGA exch. scaling (CP-SCF)           ...  0.720
   GGA corr. scaling (SCF)              ...  0.810
   GGA corr. scaling (CP-SCF)           ...  0.810

CP-SCF GRID
-----------

General Integration Accuracy     IntAcc      ... 3.467
Radial Grid Type                 RadialGrid  ... OptM3 with GC (2021)
Angular Grid (max. ang.)         AngularGrid ... 1 (Lebedev-50)
Angular grid pruning method      GridPruning ... 4 (adaptive)
Weight generation scheme         WeightScheme... Becke
Basis function cutoff            BFCut       ... 1.0000e-10
Integration weight cutoff        WCut        ... 1.0000e-14
Angular grids for H and He will be reduced by one unit
Partially contracted basis set               ... off
Rotationally invariant grid construction     ... off

Total number of grid points                  ...     2341
Total number of batches                      ...       38
Average number of points per batch           ...       61
Average number of grid points per atom       ...      585

CP-SCF GRIDX
------------

General Integration Accuracy     IntAcc      ... 3.067
Radial Grid Type                 RadialGrid  ... OptM3 with GC (2021)
Angular Grid (max. ang.)         AngularGrid ... 1 (Lebedev-50)
Angular grid pruning method      GridPruning ... 4 (adaptive)
Weight generation scheme         WeightScheme... Becke
Basis function cutoff            BFCut       ... 1.0000e-10
Integration weight cutoff        WCut        ... 1.0000e-14
Angular grids for H and He will be reduced by one unit
Partially contracted basis set               ... on
Rotationally invariant grid construction     ... off

Total number of grid points                  ...     1075
Total number of batches                      ...       20
Average number of points per batch           ...       53
Average number of grid points per atom       ...      269

Memory available               ... 968.0 MB
Memory needed per perturbation ...   0.4 MB
Perturbations treated per batch... 3
Number of batches              ... 1
     CP-SCF ITERATION   0:   5.3577e-02 (   0.1 sec   0/  3 done)
     CP-SCF ITERATION   1:   2.3516e-03 (   0.1 sec   0/  3 done)
     CP-SCF ITERATION   2:   1.6928e-04 (   0.1 sec   3/  3 done)
                    *** THE CP-SCF HAS CONVERGED ***

Forming final perturbed densities           ... done
Transforming perturbed density to AO basis  ... done

 Raw HFC matrix (all values in MHz): 
 -----------------------------------
               -97.6447               1.4988             -14.5959
                 1.4993             -50.6700              20.6312
               -14.5953              20.6309             -54.3043

 A(FC)         -67.5537             -67.5537             -67.5537
 A(SD)          36.9635              -1.1691             -35.7943
 A(ORB+DIA)      0.0143              -0.0007               0.0286    A(PC) =   0.0141
 A(ORB)          0.0100               0.0003               0.0274    A(PC) =   0.0126
 A(DIA)          0.0043              -0.0011               0.0012    A(PC) =   0.0015
             ----------           ----------           ----------
 A(Tot)        -30.5759             -68.7236            -103.3194    A(iso)=  -67.5396
 Orientation: 
  X          -0.1357837            0.3539285           -0.9253634
  Y           0.7047824            0.6909472            0.1608535
  Z           0.6963079           -0.6303385           -0.3432619

Notes:  (1) The A matrix conforms to the "SAI" spin Hamiltonian convention.
        (2) Tensor is right-handed.

 -----------------------------------------------------------
 Nucleus   2H : A:ISTP=    1 I=  0.5 P=533.5514 MHz/au**3
                Q:ISTP=    2 I=  1.0 Q=  0.0029 barn     
 -----------------------------------------------------------
 Solving for nuclear perturbation:
Forming RHS of the CP-SCF equations         ... 
Calc. nucleus orbit integrals (SHARK)       ... done

------------------------------------------------------------------------------
                           ORCA CP-SCF CALCULATION
------------------------------------------------------------------------------

Input orbitals are from        ... /home/rwth0701/scratch/cs681498/orcajob__30556187-mx16/4222.gbw
Input Perturbation             ... /home/rwth0701/scratch/cs681498/orcajob__30556187-mx16/4222.pin.tmp
Wavefunction output            ... /home/rwth0701/scratch/cs681498/orcajob__30556187-mx16/4222.pout.tmp
Perturbation mode              ... Imaginary perturbation
Solver                         ... POPLE
Max. number of iterations      ... 64
Convergence tolerance          ... 1.000e-03
Integral handling              ... Direct
DFT GridXC                     ... 1
COSX GridX                     ... 1
COSX IntAccX                   ... 3.067
COSX Algorithm                 ... Auto
Number of perturbations        ... 3
Number of operators            ... 2
Orbital ranges used for CP-SCF:
 Operator 0:  Orbitals   0...  4  to   5... 72
 Operator 1:  Orbitals   0...  3  to   4... 72
Variables per perturbation     ... 616
DFT calculation                         ... on
XC functional terms                     ... off
Hybrid DFT                              ... on
   Exchange mixing (SCF)                ...  0.200
   Exchange mixing (CP-SCF)             ...  0.200
   GGA exch. scaling(SCF)               ...  0.720
   GGA exch. scaling (CP-SCF)           ...  0.720
   GGA corr. scaling (SCF)              ...  0.810
   GGA corr. scaling (CP-SCF)           ...  0.810

CP-SCF GRID
-----------

General Integration Accuracy     IntAcc      ... 3.467
Radial Grid Type                 RadialGrid  ... OptM3 with GC (2021)
Angular Grid (max. ang.)         AngularGrid ... 1 (Lebedev-50)
Angular grid pruning method      GridPruning ... 4 (adaptive)
Weight generation scheme         WeightScheme... Becke
Basis function cutoff            BFCut       ... 1.0000e-10
Integration weight cutoff        WCut        ... 1.0000e-14
Angular grids for H and He will be reduced by one unit
Partially contracted basis set               ... off
Rotationally invariant grid construction     ... off

Total number of grid points                  ...     2341
Total number of batches                      ...       38
Average number of points per batch           ...       61
Average number of grid points per atom       ...      585

CP-SCF GRIDX
------------

General Integration Accuracy     IntAcc      ... 3.067
Radial Grid Type                 RadialGrid  ... OptM3 with GC (2021)
Angular Grid (max. ang.)         AngularGrid ... 1 (Lebedev-50)
Angular grid pruning method      GridPruning ... 4 (adaptive)
Weight generation scheme         WeightScheme... Becke
Basis function cutoff            BFCut       ... 1.0000e-10
Integration weight cutoff        WCut        ... 1.0000e-14
Angular grids for H and He will be reduced by one unit
Partially contracted basis set               ... on
Rotationally invariant grid construction     ... off

Total number of grid points                  ...     1075
Total number of batches                      ...       20
Average number of points per batch           ...       53
Average number of grid points per atom       ...      269

Memory available               ... 967.8 MB
Memory needed per perturbation ...   0.4 MB
Perturbations treated per batch... 3
Number of batches              ... 1
     CP-SCF ITERATION   0:   6.5978e-02 (   0.1 sec   0/  3 done)
     CP-SCF ITERATION   1:   2.9712e-03 (   0.1 sec   0/  3 done)
     CP-SCF ITERATION   2:   2.5417e-04 (   0.1 sec   3/  3 done)
                    *** THE CP-SCF HAS CONVERGED ***

Forming final perturbed densities           ... done
Transforming perturbed density to AO basis  ... done

 Raw HFC matrix (all values in MHz): 
 -----------------------------------
               -70.3089              26.4601              27.4297
                26.4607             -78.4642              -2.3422
                27.4306              -2.3426             -48.9463

 A(FC)         -65.9208             -65.9208             -65.9208
 A(SD)          39.5948               2.9070             -42.5018
 A(ORB+DIA)      0.0118              -0.0006               0.0318    A(PC) =   0.0143
 A(ORB)          0.0064               0.0006               0.0303    A(PC) =   0.0124
 A(DIA)          0.0054              -0.0012               0.0016    A(PC) =   0.0019
             ----------           ----------           ----------
 A(Tot)        -26.3142             -63.0144            -108.3908    A(iso)=  -65.9065
 Orientation: 
  X          -0.6244996            0.3658040            0.6900636
  Y          -0.2841889            0.7165418           -0.6370278
  Z          -0.7274867           -0.5939321           -0.3435226

Notes:  (1) The A matrix conforms to the "SAI" spin Hamiltonian convention.
        (2) Tensor is right-handed.

 -----------------------------------------------------------
 Nucleus   3H : A:ISTP=    1 I=  0.5 P=533.5514 MHz/au**3
                Q:ISTP=    2 I=  1.0 Q=  0.0029 barn     
 -----------------------------------------------------------
 Solving for nuclear perturbation:
Forming RHS of the CP-SCF equations         ... 
Calc. nucleus orbit integrals (SHARK)       ... done

------------------------------------------------------------------------------
                           ORCA CP-SCF CALCULATION
------------------------------------------------------------------------------

Input orbitals are from        ... /home/rwth0701/scratch/cs681498/orcajob__30556187-mx16/4222.gbw
Input Perturbation             ... /home/rwth0701/scratch/cs681498/orcajob__30556187-mx16/4222.pin.tmp
Wavefunction output            ... /home/rwth0701/scratch/cs681498/orcajob__30556187-mx16/4222.pout.tmp
Perturbation mode              ... Imaginary perturbation
Solver                         ... POPLE
Max. number of iterations      ... 64
Convergence tolerance          ... 1.000e-03
Integral handling              ... Direct
DFT GridXC                     ... 1
COSX GridX                     ... 1
COSX IntAccX                   ... 3.067
COSX Algorithm                 ... Auto
Number of perturbations        ... 3
Number of operators            ... 2
Orbital ranges used for CP-SCF:
 Operator 0:  Orbitals   0...  4  to   5... 72
 Operator 1:  Orbitals   0...  3  to   4... 72
Variables per perturbation     ... 616
DFT calculation                         ... on
XC functional terms                     ... off
Hybrid DFT                              ... on
   Exchange mixing (SCF)                ...  0.200
   Exchange mixing (CP-SCF)             ...  0.200
   GGA exch. scaling(SCF)               ...  0.720
   GGA exch. scaling (CP-SCF)           ...  0.720
   GGA corr. scaling (SCF)              ...  0.810
   GGA corr. scaling (CP-SCF)           ...  0.810

CP-SCF GRID
-----------

General Integration Accuracy     IntAcc      ... 3.467
Radial Grid Type                 RadialGrid  ... OptM3 with GC (2021)
Angular Grid (max. ang.)         AngularGrid ... 1 (Lebedev-50)
Angular grid pruning method      GridPruning ... 4 (adaptive)
Weight generation scheme         WeightScheme... Becke
Basis function cutoff            BFCut       ... 1.0000e-10
Integration weight cutoff        WCut        ... 1.0000e-14
Angular grids for H and He will be reduced by one unit
Partially contracted basis set               ... off
Rotationally invariant grid construction     ... off

Total number of grid points                  ...     2341
Total number of batches                      ...       38
Average number of points per batch           ...       61
Average number of grid points per atom       ...      585

CP-SCF GRIDX
------------

General Integration Accuracy     IntAcc      ... 3.067
Radial Grid Type                 RadialGrid  ... OptM3 with GC (2021)
Angular Grid (max. ang.)         AngularGrid ... 1 (Lebedev-50)
Angular grid pruning method      GridPruning ... 4 (adaptive)
Weight generation scheme         WeightScheme... Becke
Basis function cutoff            BFCut       ... 1.0000e-10
Integration weight cutoff        WCut        ... 1.0000e-14
Angular grids for H and He will be reduced by one unit
Partially contracted basis set               ... on
Rotationally invariant grid construction     ... off

Total number of grid points                  ...     1075
Total number of batches                      ...       20
Average number of points per batch           ...       53
Average number of grid points per atom       ...      269

Memory available               ... 967.7 MB
Memory needed per perturbation ...   0.4 MB
Perturbations treated per batch... 3
Number of batches              ... 1
     CP-SCF ITERATION   0:   6.3073e-02 (   0.1 sec   0/  3 done)
     CP-SCF ITERATION   1:   2.3506e-03 (   0.1 sec   0/  3 done)
     CP-SCF ITERATION   2:   1.8286e-04 (   0.1 sec   3/  3 done)
                    *** THE CP-SCF HAS CONVERGED ***

Forming final perturbed densities           ... done
Transforming perturbed density to AO basis  ... done

 Raw HFC matrix (all values in MHz): 
 -----------------------------------
               -30.4481             -17.3107              -4.1628
               -17.3110             -70.5886             -20.2359
                -4.1632             -20.2357             -87.0597

 A(FC)         -62.7135             -62.7135             -62.7135
 A(SD)          38.8656               1.5977             -40.4633
 A(ORB+DIA)      0.0128              -0.0006               0.0319    A(PC) =   0.0147
 A(ORB)          0.0078               0.0005               0.0305    A(PC) =   0.0129
 A(DIA)          0.0050              -0.0012               0.0015    A(PC) =   0.0018
             ----------           ----------           ----------
 A(Tot)        -23.8351             -61.1165            -103.1449    A(iso)=  -62.6988
 Orientation: 
  X           0.9280285            0.3232765            0.1850820
  Y          -0.3681635            0.7203095            0.5878859
  Z           0.0567334           -0.6137154            0.7874864

Notes:  (1) The A matrix conforms to the "SAI" spin Hamiltonian convention.
        (2) Tensor is right-handed.

 -----------------------------------------------------------
 Nucleus   0C : A:ISTP=   13 I=  0.5 P=134.1903 MHz/au**3
                Q:ISTP=   13 I=  0.5 Q=  0.0000 barn     
 -----------------------------------------------------------
 Solving for nuclear perturbation:
Forming RHS of the CP-SCF equations         ... 
Calc. nucleus orbit integrals (SHARK)       ... done

------------------------------------------------------------------------------
                           ORCA CP-SCF CALCULATION
------------------------------------------------------------------------------

Input orbitals are from        ... /home/rwth0701/scratch/cs681498/orcajob__30556187-mx16/4222.gbw
Input Perturbation             ... /home/rwth0701/scratch/cs681498/orcajob__30556187-mx16/4222.pin.tmp
Wavefunction output            ... /home/rwth0701/scratch/cs681498/orcajob__30556187-mx16/4222.pout.tmp
Perturbation mode              ... Imaginary perturbation
Solver                         ... POPLE
Max. number of iterations      ... 64
Convergence tolerance          ... 1.000e-03
Integral handling              ... Direct
DFT GridXC                     ... 1
COSX GridX                     ... 1
COSX IntAccX                   ... 3.067
COSX Algorithm                 ... Auto
Number of perturbations        ... 3
Number of operators            ... 2
Orbital ranges used for CP-SCF:
 Operator 0:  Orbitals   0...  4  to   5... 72
 Operator 1:  Orbitals   0...  3  to   4... 72
Variables per perturbation     ... 616
DFT calculation                         ... on
XC functional terms                     ... off
Hybrid DFT                              ... on
   Exchange mixing (SCF)                ...  0.200
   Exchange mixing (CP-SCF)             ...  0.200
   GGA exch. scaling(SCF)               ...  0.720
   GGA exch. scaling (CP-SCF)           ...  0.720
   GGA corr. scaling (SCF)              ...  0.810
   GGA corr. scaling (CP-SCF)           ...  0.810

CP-SCF GRID
-----------

General Integration Accuracy     IntAcc      ... 3.467
Radial Grid Type                 RadialGrid  ... OptM3 with GC (2021)
Angular Grid (max. ang.)         AngularGrid ... 1 (Lebedev-50)
Angular grid pruning method      GridPruning ... 4 (adaptive)
Weight generation scheme         WeightScheme... Becke
Basis function cutoff            BFCut       ... 1.0000e-10
Integration weight cutoff        WCut        ... 1.0000e-14
Angular grids for H and He will be reduced by one unit
Partially contracted basis set               ... off
Rotationally invariant grid construction     ... off

Total number of grid points                  ...     2341
Total number of batches                      ...       38
Average number of points per batch           ...       61
Average number of grid points per atom       ...      585

CP-SCF GRIDX
------------

General Integration Accuracy     IntAcc      ... 3.067
Radial Grid Type                 RadialGrid  ... OptM3 with GC (2021)
Angular Grid (max. ang.)         AngularGrid ... 1 (Lebedev-50)
Angular grid pruning method      GridPruning ... 4 (adaptive)
Weight generation scheme         WeightScheme... Becke
Basis function cutoff            BFCut       ... 1.0000e-10
Integration weight cutoff        WCut        ... 1.0000e-14
Angular grids for H and He will be reduced by one unit
Partially contracted basis set               ... on
Rotationally invariant grid construction     ... off

Total number of grid points                  ...     1075
Total number of batches                      ...       20
Average number of points per batch           ...       53
Average number of grid points per atom       ...      269

Memory available               ... 967.6 MB
Memory needed per perturbation ...   0.4 MB
Perturbations treated per batch... 3
Number of batches              ... 1
     CP-SCF ITERATION   0:   1.0461e+00 (   0.1 sec   0/  3 done)
     CP-SCF ITERATION   1:   4.1862e-02 (   0.1 sec   0/  3 done)
     CP-SCF ITERATION   2:   3.0743e-03 (   0.1 sec   0/  3 done)
     CP-SCF ITERATION   3:   1.9700e-04 (   0.1 sec   3/  3 done)
                    *** THE CP-SCF HAS CONVERGED ***

Forming final perturbed densities           ... done
Transforming perturbed density to AO basis  ... done

 Raw HFC matrix (all values in MHz): 
 -----------------------------------
                32.7309              59.4340             -52.1068
                59.4340             124.9500            -104.7480
               -52.1068            -104.7481              93.8224

 A(FC)          83.9500              83.9500              83.9500
 A(SD)         -81.0175             -79.7943             160.8118
 A(ORB+DIA)     -0.1697              -0.1646              -0.0125    A(PC) =  -0.1156
 A(ORB)         -0.1701              -0.1650              -0.0124    A(PC) =  -0.1158
 A(DIA)          0.0004               0.0004              -0.0001    A(PC) =   0.0002
             ----------           ----------           ----------
 A(Tot)          2.7629               3.9911             244.7494    A(iso)=   83.8344
 Orientation: 
  X          -0.7202031           -0.5994076            0.3493107
  Y          -0.2151139            0.6716263            0.7089740
  Z          -0.6595707            0.4354637           -0.6126482

Notes:  (1) The A matrix conforms to the "SAI" spin Hamiltonian convention.
        (2) Tensor is right-handed.


--------------------------------------------------------------------------------
----------------------------------------------------------------------------
                           ORCA EULER ANGLE PROGRAM
----------------------------------------------------------------------------

Only g-tensor available        -->  using g-tensor as reference tensor

Reference tensor               ...  g

g-tensor ordering              ...  |g_min> --> |gx>
                                    |g_mid> --> |gy>
                                    |g_max> --> |gz>

A- and EFG-tensor ordering     ...  the axes |Ax>, |Qx>, |Ay>, etc. are assigned
                                    such that the Euler rotation is minimal. You
                                    can find the respective eigenvalues as Ax,
                                    EFGx, Ay, etc. in the tables below.
                                    The relation of |Ax>, |Ay>,  etc. to Amin, Amid, etc.
                                    (as printed in the ORCA EPR/NMR CALCULATION Output)
                                    is obtained in the detailed printout.

Euler rotation around          ...  z - y - z
   First rotation              -->  by alpha around z
   Second rotation             -->  by beta around y'
   Third rotation              -->  by gamma around z''
   Positive / Negative angle   -->  clockwise / counterclockwise rotation

Plot EFG-tensors                    (-)
Plot HFC-tensors                    (-)
Detailed Printout                   (-)

-------------------------------------------------------------------------
          Euler rotation of hyperfine tensor to g-tensor
-------------------------------------------------------------------------

-------------------------------------------------------------------
 Atom  |   Alpha    Beta    Gamma   |   Ax       Ay       Az 
       |          [degrees]         |           [MHz]         
-------------------------------------------------------------------
  1H      -92.6     24.7     92.9     -68.72  -103.32   -30.58
  2H       86.5     26.8    -86.3     -63.01  -108.39   -26.31
  3H      -87.8      4.4     86.1     -61.12   -23.84  -103.14
  0C       89.6     34.4    -89.8     244.75     3.99     2.76
-------------------------------------------------------------------


Maximum memory used throughout the entire EPRNMR-calculation: 67.6 MB

Timings for individual modules:

Sum of individual times         ...       22.846 sec (=   0.381 min)
GTO integral calculation        ...        3.958 sec (=   0.066 min)  17.3 %
Spin-Orbit-Coupling Matrices    ...        3.006 sec (=   0.050 min)  13.2 %
SCF iterations                  ...        8.185 sec (=   0.136 min)  35.8 %
EPR/NMR calculation             ...        7.697 sec (=   0.128 min)  33.7 %
                             ****ORCA TERMINATED NORMALLY****
TOTAL RUN TIME: 0 days 0 hours 0 minutes 26 seconds 324 msec
