Job execution start: Mon Oct 24 18:40:47 CEST 2022
Shared library path: /home/cs681498/orca:/opt/MPI/openmpi-4.1.1/linux/gcc_4.8.5/lib:/opt/MPI/openmpi-4.1.1/linux/gcc_4.8.5/lib/lib32
Slurm Job ID is: 30556166
Slurm Job name is: 3396
ncm0575

                                 *****************
                                 * O   R   C   A *
                                 *****************

                                            #,                                       
                                            ###                                      
                                            ####                                     
                                            #####                                    
                                            ######                                   
                                           ########,                                 
                                     ,,################,,,,,                         
                               ,,#################################,,                 
                          ,,##########################################,,             
                       ,#########################################, ''#####,          
                    ,#############################################,,   '####,        
                  ,##################################################,,,,####,       
                ,###########''''           ''''###############################       
              ,#####''   ,,,,##########,,,,          '''####'''          '####       
            ,##' ,,,,###########################,,,                        '##       
           ' ,,###''''                  '''############,,,                           
         ,,##''                                '''############,,,,        ,,,,,,###''
      ,#''                                            '''#######################'''  
     '                                                          ''''####''''         
             ,#######,   #######,   ,#######,      ##                                
            ,#'     '#,  ##    ##  ,#'     '#,    #''#        ######   ,####,        
            ##       ##  ##   ,#'  ##            #'  '#       #        #'  '#        
            ##       ##  #######   ##           ,######,      #####,   #    #        
            '#,     ,#'  ##    ##  '#,     ,#' ,#      #,         ##   #,  ,#        
             '#######'   ##     ##  '#######'  #'      '#     #####' # '####'        



                  #######################################################
                  #                        -***-                        #
                  #          Department of theory and spectroscopy      #
                  #    Directorship and core code : Frank Neese         #
                  #        Max Planck Institute fuer Kohlenforschung    #
                  #                Kaiser Wilhelm Platz 1               #
                  #                 D-45470 Muelheim/Ruhr               #
                  #                      Germany                        #
                  #                                                     #
                  #                  All rights reserved                #
                  #                        -***-                        #
                  #######################################################


                         Program Version 5.0.3 -  RELEASE  -


 With contributions from (in alphabetic order):
   Daniel Aravena         : Magnetic Suceptibility
   Michael Atanasov       : Ab Initio Ligand Field Theory (pilot matlab implementation)
   Alexander A. Auer      : GIAO ZORA, VPT2 properties, NMR spectrum
   Ute Becker             : Parallelization
   Giovanni Bistoni       : ED, misc. LED, open-shell LED, HFLD
   Martin Brehm           : Molecular dynamics
   Dmytro Bykov           : SCF Hessian
   Vijay G. Chilkuri      : MRCI spin determinant printing, contributions to CSF-ICE
   Dipayan Datta          : RHF DLPNO-CCSD density
   Achintya Kumar Dutta   : EOM-CC, STEOM-CC
   Dmitry Ganyushin       : Spin-Orbit,Spin-Spin,Magnetic field MRCI
   Miquel Garcia          : C-PCM and meta-GGA Hessian, CC/C-PCM, Gaussian charge scheme
   Yang Guo               : DLPNO-NEVPT2, F12-NEVPT2, CIM, IAO-localization
   Andreas Hansen         : Spin unrestricted coupled pair/coupled cluster methods
   Benjamin Helmich-Paris : MC-RPA, TRAH-SCF, COSX integrals
   Lee Huntington         : MR-EOM, pCC
   Robert Izsak           : Overlap fitted RIJCOSX, COSX-SCS-MP3, EOM
   Marcus Kettner         : VPT2
   Christian Kollmar      : KDIIS, OOCD, Brueckner-CCSD(T), CCSD density, CASPT2, CASPT2-K
   Simone Kossmann        : Meta GGA functionals, TD-DFT gradient, OOMP2, MP2 Hessian
   Martin Krupicka        : Initial AUTO-CI
   Lucas Lang             : DCDCAS
   Marvin Lechner         : AUTO-CI (C++ implementation), FIC-MRCC
   Dagmar Lenk            : GEPOL surface, SMD
   Dimitrios Liakos       : Extrapolation schemes; Compound Job, initial MDCI parallelization
   Dimitrios Manganas     : Further ROCIS development; embedding schemes
   Dimitrios Pantazis     : SARC Basis sets
   Anastasios Papadopoulos: AUTO-CI, single reference methods and gradients
   Taras Petrenko         : DFT Hessian,TD-DFT gradient, ASA, ECA, R-Raman, ABS, FL, XAS/XES, NRVS
   Peter Pinski           : DLPNO-MP2, DLPNO-MP2 Gradient
   Christoph Reimann      : Effective Core Potentials
   Marius Retegan         : Local ZFS, SOC
   Christoph Riplinger    : Optimizer, TS searches, QM/MM, DLPNO-CCSD(T), (RO)-DLPNO pert. Triples
   Tobias Risthaus        : Range-separated hybrids, TD-DFT gradient, RPA, STAB
   Michael Roemelt        : Original ROCIS implementation
   Masaaki Saitow         : Open-shell DLPNO-CCSD energy and density
   Barbara Sandhoefer     : DKH picture change effects
   Avijit Sen             : IP-ROCIS
   Kantharuban Sivalingam : CASSCF convergence, NEVPT2, FIC-MRCI
   Bernardo de Souza      : ESD, SOC TD-DFT
   Georgi Stoychev        : AutoAux, RI-MP2 NMR, DLPNO-MP2 response
   Willem Van den Heuvel  : Paramagnetic NMR
   Boris Wezisla          : Elementary symmetry handling
   Frank Wennmohs         : Technical directorship


 We gratefully acknowledge several colleagues who have allowed us to
 interface, adapt or use parts of their codes:
   Stefan Grimme, W. Hujo, H. Kruse, P. Pracht,  : VdW corrections, initial TS optimization,
                  C. Bannwarth, S. Ehlert          DFT functionals, gCP, sTDA/sTD-DF
   Ed Valeev, F. Pavosevic, A. Kumar             : LibInt (2-el integral package), F12 methods
   Garnet Chan, S. Sharma, J. Yang, R. Olivares  : DMRG
   Ulf Ekstrom                                   : XCFun DFT Library
   Mihaly Kallay                                 : mrcc  (arbitrary order and MRCC methods)
   Jiri Pittner, Ondrej Demel                    : Mk-CCSD
   Frank Weinhold                                : gennbo (NPA and NBO analysis)
   Christopher J. Cramer and Donald G. Truhlar   : smd solvation model
   Lars Goerigk                                  : TD-DFT with DH, B97 family of functionals
   V. Asgeirsson, H. Jonsson                     : NEB implementation
   FAccTs GmbH                                   : IRC, NEB, NEB-TS, DLPNO-Multilevel, CI-OPT
                                                   MM, QMMM, 2- and 3-layer-ONIOM, Crystal-QMMM,
                                                   LR-CPCM, SF, NACMEs, symmetry and pop. for TD-DFT,
                                                   nearIR, NL-DFT gradient (VV10), updates on ESD,
                                                   ML-optimized integration grids
   S Lehtola, MJT Oliveira, MAL Marques          : LibXC Library
   Liviu Ungur et al                             : ANISO software


 Your calculation uses the libint2 library for the computation of 2-el integrals
 For citations please refer to: http://libint.valeyev.net

 Your ORCA version has been built with support for libXC version: 5.1.0
 For citations please refer to: https://tddft.org/programs/libxc/

 This ORCA versions uses:
   CBLAS   interface :  Fast vector & matrix operations
   LAPACKE interface :  Fast linear algebra routines
   SCALAPACK package :  Parallel linear algebra routines
   Shared memory     :  Shared parallel matrices
   BLAS/LAPACK       :  OpenBLAS 0.3.15  USE64BITINT DYNAMIC_ARCH NO_AFFINITY SkylakeX SINGLE_THREADED
        Core in use  :  SkylakeX
   Copyright (c) 2011-2014, The OpenBLAS Project


================================================================================

----- Orbital basis set information -----
Your calculation utilizes the basis: EPR-III
   V. Barone, in Recent Advances in Density Functional Methods, Part 1 (ed. D. P. Chong), World Scientific, Singapore, 1995, p. 287.
   N. Rega, M. Cossi and V. Barone, J. Chem. Phys. 105, 11060 (1996).

----- AuxJ basis set information -----
Your calculation utilizes the AutoAux generation procedure.
  G. L. Stoychev, A. A. Auer, F. Neese, J. Chem. Theory Comput. 13, 554 (2017)

----- AuxC basis set information -----
Your calculation utilizes the AutoAux generation procedure.
  G. L. Stoychev, A. A. Auer, F. Neese, J. Chem. Theory Comput. 13, 554 (2017)

----- AuxJK basis set information -----
Your calculation utilizes the AutoAux generation procedure.
  G. L. Stoychev, A. A. Auer, F. Neese, J. Chem. Theory Comput. 13, 554 (2017)

================================================================================
                                        WARNINGS
                       Please study these warnings very carefully!
================================================================================


WARNING: your system is open-shell and RHF/RKS was chosen
  ===> : WILL SWITCH to UHF/UKS


INFO   : the flag for use of the SHARK integral package has been found!

================================================================================
                                       INPUT FILE
================================================================================
NAME = /home/rwth0701/scratch/cs681498/orcajob__30556166-Mnlx/3396.inp
|  1> !B3LYP EPR-III Autoaux
|  2> !PAL4
|  3> 
|  4> * xyz 0 2
|  5>  C      0.0498432655    -14.8360398215    -10.3951721984
|  6>  H      1.1655611669    -15.0561263011    -10.4016358193
|  7>  H     -0.2283945218    -14.4016363851     -9.4085776931
|  8>  H     -0.7432066789    -15.1944866655    -11.1114727393
|  9> *
| 10> 
| 11> %EPRNMR
| 12>         GTENSOR   TRUE
| 13>         NUCLEI    = ALL H {AISO, ADIP, AORB}
| 14>         NUCLEI    = ALL C {AISO, ADIP, AORB}
| 15> END
| 16> 
| 17> 
| 18>                          ****END OF INPUT****
================================================================================

                       ****************************
                       * Single Point Calculation *
                       ****************************

---------------------------------
CARTESIAN COORDINATES (ANGSTROEM)
---------------------------------
  C      0.049843  -14.836040  -10.395172
  H      1.165561  -15.056126  -10.401636
  H     -0.228395  -14.401636   -9.408578
  H     -0.743207  -15.194487  -11.111473

----------------------------
CARTESIAN COORDINATES (A.U.)
----------------------------
  NO LB      ZA    FRAG     MASS         X           Y           Z
   0 C     6.0000    0    12.011    0.094190  -28.036052  -19.644029
   1 H     1.0000    0     1.008    2.202591  -28.451955  -19.656243
   2 H     1.0000    0     1.008   -0.431603  -27.215149  -17.779635
   3 H     1.0000    0     1.008   -1.404457  -28.713419  -20.997640

--------------------------------
INTERNAL COORDINATES (ANGSTROEM)
--------------------------------
 C      0   0   0     0.000000000000     0.00000000     0.00000000
 H      1   0   0     1.137236243004     0.00000000     0.00000000
 H      1   2   0     1.113324449442   109.01015309     0.00000000
 H      1   2   3     1.127164060454   128.69040068   194.32557989

---------------------------
INTERNAL COORDINATES (A.U.)
---------------------------
 C      0   0   0     0.000000000000     0.00000000     0.00000000
 H      1   0   0     2.149065048847     0.00000000     0.00000000
 H      1   2   0     2.103878307645   109.01015309     0.00000000
 H      1   2   3     2.130031382257   128.69040068   194.32557989

---------------------
BASIS SET INFORMATION
---------------------
There are 2 groups of distinct atoms

 Group   1 Type C   : 12s8p2d1f contracted to 8s5p2d1f pattern {51111111/41111/11/1}
 Group   2 Type H   : 7s2p contracted to 5s2p pattern {31111/11}

Atom   0C    basis set group =>   1
Atom   1H    basis set group =>   2
Atom   2H    basis set group =>   2
Atom   3H    basis set group =>   2
---------------------------------
AUXILIARY/J BASIS SET INFORMATION
---------------------------------
There are 2 groups of distinct atoms

 Group   1 Type C   : 20s17p16d8f3g contracted to 20s17p16d8f3g pattern {11111111111111111111/11111111111111111/1111111111111111/11111111/111}
 Group   2 Type H   : 17s7p3d contracted to 17s7p3d pattern {11111111111111111/1111111/111}

Atom   0C    basis set group =>   1
Atom   1H    basis set group =>   2
Atom   2H    basis set group =>   2
Atom   3H    basis set group =>   2
---------------------------------
AUXILIARY/C BASIS SET INFORMATION
---------------------------------
There are 2 groups of distinct atoms

 Group   1 Type C   : 20s17p16d8f3g contracted to 20s17p16d8f3g pattern {11111111111111111111/11111111111111111/1111111111111111/11111111/111}
 Group   2 Type H   : 17s7p3d contracted to 17s7p3d pattern {11111111111111111/1111111/111}

Atom   0C    basis set group =>   1
Atom   1H    basis set group =>   2
Atom   2H    basis set group =>   2
Atom   3H    basis set group =>   2
----------------------------------
AUXILIARY/JK BASIS SET INFORMATION
----------------------------------
There are 2 groups of distinct atoms

 Group   1 Type C   : 20s17p16d8f3g contracted to 20s17p16d8f3g pattern {11111111111111111111/11111111111111111/1111111111111111/11111111/111}
 Group   2 Type H   : 17s7p3d contracted to 17s7p3d pattern {11111111111111111/1111111/111}

Atom   0C    basis set group =>   1
Atom   1H    basis set group =>   2
Atom   2H    basis set group =>   2
Atom   3H    basis set group =>   2


           ************************************************************
           *        Program running with 4 parallel MPI-processes     *
           *              working on a common directory               *
           ************************************************************
------------------------------------------------------------------------------
                           ORCA GTO INTEGRAL CALCULATION
                           -- RI-GTO INTEGRALS CHOSEN --
------------------------------------------------------------------------------
------------------------------------------------------------------------------
                   ___                                                        
                  /   \      - P O W E R E D   B Y -                         
                 /     \                                                     
                 |  |  |   _    _      __       _____    __    __             
                 |  |  |  | |  | |    /  \     |  _  \  |  |  /  |          
                  \  \/   | |  | |   /    \    | | | |  |  | /  /          
                 / \  \   | |__| |  /  /\  \   | |_| |  |  |/  /          
                |  |  |   |  __  | /  /__\  \  |    /   |      \           
                |  |  |   | |  | | |   __   |  |    \   |  |\   \          
                \     /   | |  | | |  |  |  |  | |\  \  |  | \   \       
                 \___/    |_|  |_| |__|  |__|  |_| \__\ |__|  \__/        
                                                                              
                      - O R C A' S   B I G   F R I E N D -                    
                                      &                                       
                       - I N T E G R A L  F E E D E R -                       
                                                                              
 v1 FN, 2020, v2 2021                                                         
------------------------------------------------------------------------------


Reading SHARK input file /home/rwth0701/scratch/cs681498/orcajob__30556166-Mnlx/3396.SHARKINP.tmp ... ok
----------------------
SHARK INTEGRAL PACKAGE
----------------------

Number of atoms                             ...      4
Number of basis functions                   ...     73
Number of shells                            ...     37
Maximum angular momentum                    ...      3
Integral batch strategy                     ... SHARK/LIBINT Hybrid
RI-J (if used) integral strategy            ... SPLIT-RIJ (Revised 2003 algorithm where possible)
Printlevel                                  ...      1
Contraction scheme used                     ... SEGMENTED contraction
Coulomb Range Separation                    ... NOT USED
Exchange Range Separation                   ... NOT USED
Finite Nucleus Model                        ... NOT USED
Auxiliary Coulomb fitting basis             ... AVAILABLE
   # of basis functions in Aux-J            ...    393
   # of shells in Aux-J                     ...    145
   Maximum angular momentum in Aux-J        ...      4
Auxiliary J/K fitting basis                 ... AVAILABLE
   # of basis functions in Aux-JK           ...    393
   # of shells in Aux-JK                    ...    145
   Maximum angular momentum in Aux-JK       ...      4
Auxiliary Correlation fitting basis         ... AVAILABLE
   # of basis functions in Aux-C            ...    393
   # of shells in Aux-C                     ...    145
   Maximum angular momentum in Aux-C        ...      4
Auxiliary 'external' fitting basis          ... NOT available
Integral threshold                          ...     1.000000e-10
Primitive cut-off                           ...     1.000000e-11
Primitive pair pre-selection threshold      ...     1.000000e-11

Calculating pre-screening integrals         ... done (  0.0 sec) Dimension = 37
Organizing shell pair data                  ... done (  0.0 sec)
Shell pair information
Total number of shell pairs                 ...       703
Shell pairs after pre-screening             ...       688
Total number of primitive shell pairs       ...      1300
Primitive shell pairs kept                  ...      1183
          la=0 lb=0:    261 shell pairs
          la=1 lb=0:    253 shell pairs
          la=1 lb=1:     66 shell pairs
          la=2 lb=0:     46 shell pairs
          la=2 lb=1:     22 shell pairs
          la=2 lb=2:      3 shell pairs
          la=3 lb=0:     23 shell pairs
          la=3 lb=1:     11 shell pairs
          la=3 lb=2:      2 shell pairs
          la=3 lb=3:      1 shell pairs

Calculating one electron integrals          ... done (  0.0 sec)
Calculating RI/J V-Matrix + Cholesky decomp.... done (  0.1 sec)
Calculating RI/JK V-Matrix + Cholesky decomp... done (  0.1 sec)
Calculating RI/C V-Matrix + Cholesky decomp.... done (  0.1 sec)
Calculating Nuclear repulsion               ... done (  0.0 sec) ENN=      9.280384939393 Eh

SHARK setup successfully completed in   0.7 seconds

Maximum memory used throughout the entire GTOINT-calculation: 13.7 MB


           ************************************************************
           *        Program running with 4 parallel MPI-processes     *
           *              working on a common directory               *
           ************************************************************
-------------------------------------------------------------------------------
                                 ORCA SCF
-------------------------------------------------------------------------------

------------
SCF SETTINGS
------------
Hamiltonian:
 Density Functional     Method          .... DFT(GTOs)
 Exchange Functional    Exchange        .... B88
   X-Alpha parameter    XAlpha          ....  0.666667
   Becke's b parameter  XBeta           ....  0.004200
 Correlation Functional Correlation     .... LYP
 LDA part of GGA corr.  LDAOpt          .... VWN-5
 Gradients option       PostSCFGGA      .... off
 Hybrid DFT is turned on
   Fraction HF Exchange ScalHFX         ....  0.200000
   Scaling of DF-GGA-X  ScalDFX         ....  0.720000
   Scaling of DF-GGA-C  ScalDFC         ....  0.810000
   Scaling of DF-LDA-C  ScalLDAC        ....  1.000000
   Perturbative correction              ....  0.000000
   Density functional embedding theory  .... OFF
   NL short-range parameter             ....  4.800000
 RI-approximation to the Coulomb term is turned on
   Number of AuxJ basis functions       .... 393
   RIJ-COSX (HFX calculated with COS-X)).... on


General Settings:
 Integral files         IntName         .... /home/rwth0701/scratch/cs681498/orcajob__30556166-Mnlx/3396
 Hartree-Fock type      HFTyp           .... UHF
 Total Charge           Charge          ....    0
 Multiplicity           Mult            ....    2
 Number of Electrons    NEL             ....    9
 Basis Dimension        Dim             ....   73
 Nuclear Repulsion      ENuc            ....      9.2803849394 Eh

Convergence Acceleration:
 DIIS                   CNVDIIS         .... on
   Start iteration      DIISMaxIt       ....    12
   Startup error        DIISStart       ....  0.200000
   # of expansion vecs  DIISMaxEq       ....     5
   Bias factor          DIISBfac        ....   1.050
   Max. coefficient     DIISMaxC        ....  10.000
 Trust-Rad. Augm. Hess. CNVTRAH         .... auto
   Auto Start mean grad. ratio tolernc. ....  1.125000
   Auto Start start iteration           ....    20
   Auto Start num. interpolation iter.  ....    10
   Max. Number of Micro iterations      ....    16
   Max. Number of Macro iterations      .... Maxiter - #DIIS iter
   Number of Davidson start vectors     ....     2
   Converg. threshold I  (grad. norm)   ....   5.000e-05
   Converg. threshold II (energy diff.) ....   1.000e-06
   Grad. Scal. Fac. for Micro threshold ....   0.100
   Minimum threshold for Micro iter.    ....   0.010
   NR start threshold (gradient norm)   ....   0.001
   Initial trust radius                 ....   0.400
   Minimum AH scaling param. (alpha)    ....   1.000
   Maximum AH scaling param. (alpha)    .... 1000.000
   Orbital update algorithm             .... Taylor
   White noise on init. David. guess    .... on
   Maximum white noise                  ....   0.010
   Quad. conv. algorithm                .... NR
 SOSCF                  CNVSOSCF        .... off
 Level Shifting         CNVShift        .... on
   Level shift para.    LevelShift      ....    0.2500
   Turn off err/grad.   ShiftErr        ....    0.0010
 Zerner damping         CNVZerner       .... off
 Static damping         CNVDamp         .... on
   Fraction old density DampFac         ....    0.7000
   Max. Damping (<1)    DampMax         ....    0.9800
   Min. Damping (>=0)   DampMin         ....    0.0000
   Turn off err/grad.   DampErr         ....    0.1000
 Fernandez-Rico         CNVRico         .... off

SCF Procedure:
 Maximum # iterations   MaxIter         ....   125
 SCF integral mode      SCFMode         .... Direct
   Integral package                     .... SHARK and LIBINT hybrid scheme
 Reset frequency        DirectResetFreq ....    20
 Integral Threshold     Thresh          ....  1.000e-10 Eh
 Primitive CutOff       TCut            ....  1.000e-11 Eh

Convergence Tolerance:
 Convergence Check Mode ConvCheckMode   .... Total+1el-Energy
 Convergence forced     ConvForced      .... 0
 Energy Change          TolE            ....  1.000e-06 Eh
 1-El. energy change                    ....  1.000e-03 Eh
 DIIS Error             TolErr          ....  1.000e-06


Diagonalization of the overlap matrix:
Smallest eigenvalue                        ... 1.807e-03
Time for diagonalization                   ...    0.001 sec
Threshold for overlap eigenvalues          ... 1.000e-08
Number of eigenvalues below threshold      ... 0
Time for construction of square roots      ...    0.009 sec
Total time needed                          ...    0.010 sec

Time for model grid setup =    0.096 sec

------------------------------
INITIAL GUESS: MODEL POTENTIAL
------------------------------
Loading Hartree-Fock densities                     ... done
Calculating cut-offs                               ... done
Initializing the effective Hamiltonian             ... done
Setting up the integral package (SHARK)            ... done
Starting the Coulomb interaction                   ... done (   0.1 sec)
Reading the grid                                   ... done
Mapping shells                                     ... done
Starting the XC term evaluation                    ... done (   0.0 sec)
  promolecular density results
     # of electrons  =      8.998619875
     EX              =     -5.950207105
     EC              =     -0.258766592
     EX+EC           =     -6.208973697
Transforming the Hamiltonian                       ... done (   0.0 sec)
Diagonalizing the Hamiltonian                      ... done (   0.0 sec)
Back transforming the eigenvectors                 ... done (   0.0 sec)
Now organizing SCF variables                       ... done
                      ------------------
                      INITIAL GUESS DONE (   0.2 sec)
                      ------------------
-------------------
DFT GRID GENERATION
-------------------

General Integration Accuracy     IntAcc      ... 4.388
Radial Grid Type                 RadialGrid  ... OptM3 with GC (2021)
Angular Grid (max. ang.)         AngularGrid ... 4 (Lebedev-302)
Angular grid pruning method      GridPruning ... 4 (adaptive)
Weight generation scheme         WeightScheme... Becke
Basis function cutoff            BFCut       ... 1.0000e-10
Integration weight cutoff        WCut        ... 1.0000e-14
Angular grids for H and He will be reduced by one unit
Partially contracted basis set               ... off
Rotationally invariant grid construction     ... off

Total number of grid points                  ...    17060
Total number of batches                      ...      268
Average number of points per batch           ...       63
Average number of grid points per atom       ...     4265
Time for grid setup =    0.137 sec

--------------------
COSX GRID GENERATION
--------------------

GRIDX 1
-------
General Integration Accuracy     IntAcc      ... 3.816
Radial Grid Type                 RadialGrid  ... OptM3 with GC (2021)
Angular Grid (max. ang.)         AngularGrid ... 1 (Lebedev-50)
Angular grid pruning method      GridPruning ... 4 (adaptive)
Weight generation scheme         WeightScheme... Becke
Basis function cutoff            BFCut       ... 1.0000e-10
Integration weight cutoff        WCut        ... 1.0000e-14
Angular grids for H and He will be reduced by one unit
Partially contracted basis set               ... on
Rotationally invariant grid construction     ... off

Total number of grid points                  ...     2154
Total number of batches                      ...       35
Average number of points per batch           ...       61
Average number of grid points per atom       ...      538
UseSFitting                                  ... on

GRIDX 2
-------
General Integration Accuracy     IntAcc      ... 4.020
Radial Grid Type                 RadialGrid  ... OptM3 with GC (2021)
Angular Grid (max. ang.)         AngularGrid ... 2 (Lebedev-110)
Angular grid pruning method      GridPruning ... 4 (adaptive)
Weight generation scheme         WeightScheme... Becke
Basis function cutoff            BFCut       ... 1.0000e-10
Integration weight cutoff        WCut        ... 1.0000e-14
Angular grids for H and He will be reduced by one unit
Partially contracted basis set               ... on
Rotationally invariant grid construction     ... off

Total number of grid points                  ...     5066
Total number of batches                      ...       81
Average number of points per batch           ...       62
Average number of grid points per atom       ...     1266
UseSFitting                                  ... on

GRIDX 3
-------
General Integration Accuracy     IntAcc      ... 4.338
Radial Grid Type                 RadialGrid  ... OptM3 with GC (2021)
Angular Grid (max. ang.)         AngularGrid ... 3 (Lebedev-194)
Angular grid pruning method      GridPruning ... 4 (adaptive)
Weight generation scheme         WeightScheme... Becke
Basis function cutoff            BFCut       ... 1.0000e-10
Integration weight cutoff        WCut        ... 1.0000e-14
Angular grids for H and He will be reduced by one unit
Partially contracted basis set               ... on
Rotationally invariant grid construction     ... off

Total number of grid points                  ...    11744
Total number of batches                      ...      186
Average number of points per batch           ...       63
Average number of grid points per atom       ...     2936
UseSFitting                                  ... on

Time for X-Grid setup             =    0.224 sec

--------------
SCF ITERATIONS
--------------
ITER       Energy         Delta-E        Max-DP      RMS-DP      [F,P]     Damp
               ***  Starting incremental Fock matrix formation  ***
  0    -39.7865725193   0.000000000000 0.01383158  0.00046251  0.0801693 0.7000
  1    -39.8022988051  -0.015726285860 0.00896016  0.00034723  0.0420329 0.7000
                               ***Turning on DIIS***
  2    -39.8091734716  -0.006874666501 0.01706446  0.00060738  0.0168910 0.0000
  3    -39.8186284882  -0.009455016552 0.00642528  0.00026377  0.0251795 0.0000
  4    -39.8215978833  -0.002969395121 0.00257297  0.00007338  0.0049144 0.0000
  5    -39.8217171694  -0.000119286117 0.00089523  0.00003259  0.0016109 0.0000
  6    -39.8217353820  -0.000018212563 0.00069075  0.00002636  0.0006666 0.0000
               *** Restarting incremental Fock matrix formation ***
                                   *** Resetting DIIS ***
  7    -39.8217402654  -0.000004883463 0.00010621  0.00000321  0.0000836 0.0000
                 **** Energy Check signals convergence ****

               *****************************************************
               *                     SUCCESS                       *
               *           SCF CONVERGED AFTER   8 CYCLES          *
               *****************************************************

Old exchange energy                            =     -1.230878838 Eh
New exchange energy                            =     -1.230876943 Eh
Exchange energy change after final integration =      0.000001895 Eh
Total energy after final integration           =    -39.821738467 Eh
Final COS-X integration done in                =     0.182 sec

----------------
TOTAL SCF ENERGY
----------------

Total Energy       :          -39.82173847 Eh           -1083.60459 eV

Components:
Nuclear Repulsion  :            9.28038494 Eh             252.53211 eV
Electronic Energy  :          -49.10212341 Eh           -1336.13671 eV
One Electron Energy:          -70.91697108 Eh           -1929.74889 eV
Two Electron Energy:           21.81484768 Eh             593.61218 eV
Max COSX asymmetry :            0.00000004 Eh               0.00000 eV

Virial components:
Potential Energy   :          -79.26681027 Eh           -2156.95957 eV
Kinetic Energy     :           39.44507180 Eh            1073.35497 eV
Virial Ratio       :            2.00954914


DFT components:
N(Alpha)           :        4.999999758882 electrons
N(Beta)            :        4.000000556922 electrons
N(Total)           :        9.000000315804 electrons
E(X)               :       -4.875572754543 Eh       
E(C)               :       -0.307403612829 Eh       
E(XC)              :       -5.182976367372 Eh       
DFET-embed. en.    :        0.000000000000 Eh       

---------------
SCF CONVERGENCE
---------------

  Last Energy change         ...   -9.6418e-08  Tolerance :   1.0000e-06
  Last MAX-Density change    ...    0.0000e+00  Tolerance :   1.0000e-05
  Last RMS-Density change    ...    0.0000e+00  Tolerance :   1.0000e-06
  Last DIIS Error            ...    4.9497e-05  Tolerance :   1.0000e-06

             **** THE GBW FILE WAS UPDATED (/home/rwth0701/scratch/cs681498/orcajob__30556166-Mnlx/3396.gbw) ****
             **** DENSITY /home/rwth0701/scratch/cs681498/orcajob__30556166-Mnlx/3396.scfp WAS UPDATED ****
             **** ENERGY FILE WAS UPDATED (/home/rwth0701/scratch/cs681498/orcajob__30556166-Mnlx/3396.en.tmp) ****
----------------------
UHF SPIN CONTAMINATION
----------------------

Warning: in a DFT calculation there is little theoretical justification to 
         calculate <S**2> as in Hartree-Fock theory. We will do it anyways
         but you should keep in mind that the values have only limited relevance

Expectation value of <S**2>     :     0.754047
Ideal value S*(S+1) for S=0.5   :     0.750000
Deviation                       :     0.004047

             **** THE GBW FILE WAS UPDATED (/home/rwth0701/scratch/cs681498/orcajob__30556166-Mnlx/3396.gbw) ****
             **** DENSITY /home/rwth0701/scratch/cs681498/orcajob__30556166-Mnlx/3396.scfp WAS UPDATED ****
----------------
ORBITAL ENERGIES
----------------
                 SPIN UP ORBITALS
  NO   OCC          E(Eh)            E(eV) 
   0   1.0000     -10.198042      -277.5028 
   1   1.0000      -0.676330       -18.4039 
   2   1.0000      -0.426890       -11.6163 
   3   1.0000      -0.397236       -10.8093 
   4   1.0000      -0.236518        -6.4360 
   5   0.0000      -0.001056        -0.0287 
   6   0.0000       0.034743         0.9454 
   7   0.0000       0.038536         1.0486 
   8   0.0000       0.047187         1.2840 
   9   0.0000       0.077459         2.1078 
  10   0.0000       0.086210         2.3459 
  11   0.0000       0.095285         2.5929 
  12   0.0000       0.217604         5.9213 
  13   0.0000       0.227030         6.1778 
  14   0.0000       0.245890         6.6910 
  15   0.0000       0.275669         7.5013 
  16   0.0000       0.285946         7.7810 
  17   0.0000       0.304599         8.2886 
  18   0.0000       0.327228         8.9043 
  19   0.0000       0.538582        14.6556 
  20   0.0000       0.562367        15.3028 
  21   0.0000       0.736330        20.0366 
  22   0.0000       0.745424        20.2840 
  23   0.0000       0.774183        21.0666 
  24   0.0000       0.804001        21.8780 
  25   0.0000       0.855847        23.2888 
  26   0.0000       0.900568        24.5057 
  27   0.0000       0.913577        24.8597 
  28   0.0000       0.957544        26.0561 
  29   0.0000       1.037189        28.2234 
  30   0.0000       1.063174        28.9304 
  31   0.0000       1.098850        29.9012 
  32   0.0000       1.169392        31.8208 
  33   0.0000       1.184757        32.2389 
  34   0.0000       1.420549        38.6551 
  35   0.0000       1.434812        39.0432 
  36   0.0000       1.466172        39.8966 
  37   0.0000       1.678902        45.6852 
  38   0.0000       1.693953        46.0948 
  39   0.0000       1.752465        47.6870 
  40   0.0000       2.740853        74.5824 
  41   0.0000       2.749165        74.8086 
  42   0.0000       2.862220        77.8850 
  43   0.0000       2.882859        78.4466 
  44   0.0000       2.943498        80.0967 
  45   0.0000       2.961408        80.5840 
  46   0.0000       2.988971        81.3340 
  47   0.0000       3.134952        85.3064 
  48   0.0000       3.144949        85.5784 
  49   0.0000       3.257632        88.6447 
  50   0.0000       3.267112        88.9026 
  51   0.0000       3.638064        98.9968 
  52   0.0000       3.715363       101.1002 
  53   0.0000       3.750633       102.0599 
  54   0.0000       3.861141       105.0670 
  55   0.0000       3.898039       106.0710 
  56   0.0000       4.001554       108.8878 
  57   0.0000       4.046276       110.1048 
  58   0.0000       4.071952       110.8034 
  59   0.0000       4.081588       111.0657 
  60   0.0000       4.452514       121.1591 
  61   0.0000       5.018047       136.5480 
  62   0.0000       5.247853       142.8013 
  63   0.0000       5.313639       144.5915 
  64   0.0000       5.478060       149.0656 
  65   0.0000       5.971087       162.4815 
  66   0.0000       6.034265       164.2007 
  67   0.0000       7.590423       206.5459 
  68   0.0000      28.991054       788.8867 
  69   0.0000      37.042808      1007.9860 
  70   0.0000      37.162804      1011.2513 
  71   0.0000      37.187556      1011.9248 
  72   0.0000     133.431908      3630.8668 

                 SPIN DOWN ORBITALS
  NO   OCC          E(Eh)            E(eV) 
   0   1.0000     -10.183299      -277.1017 
   1   1.0000      -0.636684       -17.3251 
   2   1.0000      -0.418043       -11.3755 
   3   1.0000      -0.387785       -10.5522 
   4   0.0000      -0.077834        -2.1180 
   5   0.0000       0.002547         0.0693 
   6   0.0000       0.034524         0.9394 
   7   0.0000       0.038216         1.0399 
   8   0.0000       0.060485         1.6459 
   9   0.0000       0.080665         2.1950 
  10   0.0000       0.088889         2.4188 
  11   0.0000       0.097787         2.6609 
  12   0.0000       0.218932         5.9574 
  13   0.0000       0.228747         6.2245 
  14   0.0000       0.262469         7.1421 
  15   0.0000       0.292068         7.9476 
  16   0.0000       0.309104         8.4112 
  17   0.0000       0.312632         8.5071 
  18   0.0000       0.340051         9.2532 
  19   0.0000       0.562986        15.3196 
  20   0.0000       0.588378        16.0106 
  21   0.0000       0.737762        20.0755 
  22   0.0000       0.747342        20.3362 
  23   0.0000       0.796919        21.6853 
  24   0.0000       0.805697        21.9241 
  25   0.0000       0.861429        23.4407 
  26   0.0000       0.904994        24.6261 
  27   0.0000       0.928409        25.2633 
  28   0.0000       0.975479        26.5441 
  29   0.0000       1.060493        28.8575 
  30   0.0000       1.112857        30.2824 
  31   0.0000       1.129829        30.7442 
  32   0.0000       1.180454        32.1218 
  33   0.0000       1.199475        32.6394 
  34   0.0000       1.426607        38.8199 
  35   0.0000       1.455112        39.5956 
  36   0.0000       1.475744        40.1570 
  37   0.0000       1.687735        45.9256 
  38   0.0000       1.703501        46.3546 
  39   0.0000       1.758083        47.8399 
  40   0.0000       2.780083        75.6499 
  41   0.0000       2.788562        75.8806 
  42   0.0000       2.867888        78.0392 
  43   0.0000       2.942014        80.0563 
  44   0.0000       2.965586        80.6977 
  45   0.0000       2.979668        81.0809 
  46   0.0000       3.035223        82.5926 
  47   0.0000       3.186521        86.7096 
  48   0.0000       3.198669        87.0402 
  49   0.0000       3.317606        90.2767 
  50   0.0000       3.323212        90.4292 
  51   0.0000       3.640149        99.0535 
  52   0.0000       3.750652       102.0604 
  53   0.0000       3.771337       102.6233 
  54   0.0000       3.864628       105.1619 
  55   0.0000       3.910256       106.4035 
  56   0.0000       4.014482       109.2396 
  57   0.0000       4.049410       110.1900 
  58   0.0000       4.075058       110.8880 
  59   0.0000       4.107446       111.7693 
  60   0.0000       4.452498       121.1586 
  61   0.0000       5.038432       137.1027 
  62   0.0000       5.247242       142.7847 
  63   0.0000       5.313191       144.5793 
  64   0.0000       5.474128       148.9586 
  65   0.0000       5.973322       162.5423 
  66   0.0000       6.035550       164.2357 
  67   0.0000       7.624740       207.4797 
  68   0.0000      29.017887       789.6169 
  69   0.0000      37.030612      1007.6542 
  70   0.0000      37.150537      1010.9175 
  71   0.0000      37.175445      1011.5953 
  72   0.0000     133.440039      3631.0881 

                    ********************************
                    * MULLIKEN POPULATION ANALYSIS *
                    ********************************

--------------------------------------------
MULLIKEN ATOMIC CHARGES AND SPIN POPULATIONS
--------------------------------------------
   0 C :   -0.428046    1.109128
   1 H :    0.141452   -0.037690
   2 H :    0.135505   -0.036359
   3 H :    0.151089   -0.035079
Sum of atomic charges         :   -0.0000000
Sum of atomic spin populations:    1.0000000

-----------------------------------------------------
MULLIKEN REDUCED ORBITAL CHARGES AND SPIN POPULATIONS
-----------------------------------------------------
CHARGE
  0 C s       :     3.359408  s :     3.359408
      pz      :     1.025863  p :     3.040417
      px      :     1.034801
      py      :     0.979753
      dz2     :     0.006891  d :     0.025508
      dxz     :     0.005934
      dyz     :     0.003854
      dx2y2   :     0.006057
      dxy     :     0.002772
      f0      :     0.000185  f :     0.002713
      f+1     :     0.000544
      f-1     :     0.000574
      f+2     :     0.000239
      f-2     :     0.000407
      f+3     :     0.000491
      f-3     :     0.000273
  1 H s       :     0.832988  s :     0.832988
      pz      :     0.007153  p :     0.025560
      px      :     0.009409
      py      :     0.008997
  2 H s       :     0.838583  s :     0.838583
      pz      :     0.009773  p :     0.025912
      px      :     0.006668
      py      :     0.009472
  3 H s       :     0.822644  s :     0.822644
      pz      :     0.008274  p :     0.026266
      px      :     0.008254
      py      :     0.009739

SPIN
  0 C s       :     0.072511  s :     0.072511
      pz      :     0.221335  p :     1.040899
      px      :     0.048488
      py      :     0.771076
      dz2     :     0.000214  d :    -0.003011
      dxz     :     0.000392
      dyz     :    -0.001755
      dx2y2   :    -0.001797
      dxy     :    -0.000064
      f0      :    -0.000011  f :    -0.001271
      f+1     :    -0.000031
      f-1     :    -0.000485
      f+2     :    -0.000073
      f-2     :    -0.000202
      f+3     :    -0.000348
      f-3     :    -0.000120
  1 H s       :    -0.046783  s :    -0.046783
      pz      :     0.001642  p :     0.009093
      px      :     0.000061
      py      :     0.007390
  2 H s       :    -0.045431  s :    -0.045431
      pz      :     0.001519  p :     0.009073
      px      :    -0.000395
      py      :     0.007949
  3 H s       :    -0.045080  s :    -0.045080
      pz      :     0.002226  p :     0.010000
      px      :    -0.000019
      py      :     0.007793


                     *******************************
                     * LOEWDIN POPULATION ANALYSIS *
                     *******************************

-------------------------------------------
LOEWDIN ATOMIC CHARGES AND SPIN POPULATIONS
-------------------------------------------
   0 C :   -0.190699    0.927147
   1 H :    0.068513    0.022475
   2 H :    0.055863    0.026452
   3 H :    0.066324    0.023926

----------------------------------------------------
LOEWDIN REDUCED ORBITAL CHARGES AND SPIN POPULATIONS
----------------------------------------------------
CHARGE
  0 C s       :     2.918723  s :     2.918723
      pz      :     1.097677  p :     3.174837
      px      :     1.139276
      py      :     0.937885
      dz2     :     0.026166  d :     0.089908
      dxz     :     0.025938
      dyz     :     0.009640
      dx2y2   :     0.017797
      dxy     :     0.010367
      f0      :     0.000640  f :     0.007232
      f+1     :     0.001187
      f-1     :     0.001713
      f+2     :     0.000729
      f-2     :     0.000932
      f+3     :     0.001328
      f-3     :     0.000702
  1 H s       :     0.799544  s :     0.799544
      pz      :     0.029087  p :     0.131943
      px      :     0.066520
      py      :     0.036336
  2 H s       :     0.805092  s :     0.805092
      pz      :     0.064178  p :     0.139045
      px      :     0.032212
      py      :     0.042655
  3 H s       :     0.800129  s :     0.800129
      pz      :     0.045609  p :     0.133546
      px      :     0.047698
      py      :     0.040240

SPIN
  0 C s       :     0.024789  s :     0.024789
      pz      :     0.185838  p :     0.911129
      px      :     0.023126
      py      :     0.702165
      dz2     :    -0.001481  d :    -0.007469
      dxz     :    -0.001244
      dyz     :    -0.001702
      dx2y2   :    -0.002419
      dxy     :    -0.000623
      f0      :    -0.000035  f :    -0.001303
      f+1     :    -0.000105
      f-1     :    -0.000475
      f+2     :    -0.000001
      f-2     :    -0.000219
      f+3     :    -0.000340
      f-3     :    -0.000128
  1 H s       :    -0.018971  s :    -0.018971
      pz      :     0.007610  p :     0.041446
      px      :     0.004954
      py      :     0.028882
  2 H s       :    -0.017458  s :    -0.017458
      pz      :     0.011109  p :     0.043911
      px      :     0.000995
      py      :     0.031807
  3 H s       :    -0.019004  s :    -0.019004
      pz      :     0.009575  p :     0.042930
      px      :     0.003258
      py      :     0.030097


                      *****************************
                      * MAYER POPULATION ANALYSIS *
                      *****************************

  NA   - Mulliken gross atomic population
  ZA   - Total nuclear charge
  QA   - Mulliken gross atomic charge
  VA   - Mayer's total valence
  BVA  - Mayer's bonded valence
  FA   - Mayer's free valence

  ATOM       NA         ZA         QA         VA         BVA        FA
  0 C      6.4280     6.0000    -0.4280     3.8605     2.9133     0.9472
  1 H      0.8585     1.0000     0.1415     0.9802     0.9780     0.0022
  2 H      0.8645     1.0000     0.1355     0.9774     0.9753     0.0021
  3 H      0.8489     1.0000     0.1511     0.9836     0.9816     0.0021

  Mayer bond orders larger than 0.100000
B(  0-C ,  1-H ) :   0.9716 B(  0-C ,  2-H ) :   0.9730 B(  0-C ,  3-H ) :   0.9687 


-------
TIMINGS
-------

Total SCF time: 0 days 0 hours 0 min 4 sec 

Total time                  ....       4.756 sec
Sum of individual times     ....       4.181 sec  ( 87.9%)

Fock matrix formation       ....       3.479 sec  ( 73.1%)
  Split-RI-J                ....       0.404 sec  ( 11.6% of F)
  Chain of spheres X        ....       0.911 sec  ( 26.2% of F)
  XC integration            ....       1.480 sec  ( 42.5% of F)
    Basis function eval.    ....       0.113 sec  (  7.6% of XC)
    Density eval.           ....       0.107 sec  (  7.2% of XC)
    XC-Functional eval.     ....       0.100 sec  (  6.8% of XC)
    XC-Potential eval.      ....       0.159 sec  ( 10.7% of XC)
Diagonalization             ....       0.039 sec  (  0.8%)
Density matrix formation    ....       0.002 sec  (  0.0%)
Population analysis         ....       0.057 sec  (  1.2%)
Initial guess               ....       0.096 sec  (  2.0%)
Orbital Transformation      ....       0.000 sec  (  0.0%)
Orbital Orthonormalization  ....       0.000 sec  (  0.0%)
DIIS solution               ....       0.052 sec  (  1.1%)
Grid generation             ....       0.457 sec  (  9.6%)

Maximum memory used throughout the entire SCF-calculation: 59.0 MB

-------------------------   --------------------
FINAL SINGLE POINT ENERGY       -39.821738467211
-------------------------   --------------------

   --->>> g-tensor requested, so NeedSOC=true

                            ***************************************
                            *     ORCA property calculations      *
                            ***************************************

                                    ---------------------
                                    Active property flags
                                    ---------------------
   (+) Dipole Moment
   (+) g-tensor
   (+) Nuclear properties (Hyperfine,Quadrupole)
   (+) Spin-Orbit Integrals are needed


------------------------------------------------------------------------------
                       ORCA ELECTRIC PROPERTIES CALCULATION
------------------------------------------------------------------------------

Dipole Moment Calculation                       ... on
Quadrupole Moment Calculation                   ... off
Polarizability Calculation                      ... off
GBWName                                         ... /home/rwth0701/scratch/cs681498/orcajob__30556166-Mnlx/3396.gbw
Electron density                                ... /home/rwth0701/scratch/cs681498/orcajob__30556166-Mnlx/3396.scfp
The origin for moment calculation is the CENTER OF MASS  = ( 0.099819, -28.054313 -19.610603)

-------------
DIPOLE MOMENT
-------------
                                X             Y             Z
Electronic contribution:     -0.04052       0.05763      -0.15390
Nuclear contribution   :      0.03330      -0.10802       0.19774
                        -----------------------------------------
Total Dipole Moment    :     -0.00722      -0.05039       0.04384
                        -----------------------------------------
Magnitude (a.u.)       :      0.06718
Magnitude (Debye)      :      0.17076



--------------------
Rotational spectrum 
--------------------
 
Rotational constants in cm-1:    10.009839     7.808408     4.422320 
Rotational constants in MHz : 300087.425782 234090.196442 132577.804680 

 Dipole components along the rotational axes: 
x,y,z [a.u.] :     0.009326     0.014305     0.064975 
x,y,z [Debye]:     0.023704     0.036361     0.165152 

 


           ************************************************************
           *        Program running with 4 parallel MPI-processes     *
           *              working on a common directory               *
           ************************************************************
------------------------------------------------------------------------------
                         ORCA SPIN-ORBIT COUPLING CALCULATION
------------------------------------------------------------------------------

GBW file                                    ... /home/rwth0701/scratch/cs681498/orcajob__30556166-Mnlx/3396.gbw
Input density                               ... /home/rwth0701/scratch/cs681498/orcajob__30556166-Mnlx/3396.scfp
Output integrals                            ... /home/rwth0701/scratch/cs681498/orcajob__30556166-Mnlx/3396
Operator type                               ... Mean-field/Effective potential
   One-Electron Terms                       ... 1
   Coulomb Contribution                     ... 3
   Exchange Contribution                    ... 3
   Correlation Contribution                 ... 0
   Maximum number of centers                ... 4
SHARK 2-electron RIJ-SOMF                   ... done (  0.1 sec)
SHARK 1-electron  MaxCenter=4               ... done (  0.0 sec)
SHARK 2-electron DoJ,X=0,1 MaxCenter=1      ... done (  0.1 sec)

Maximum memory used throughout the entire SOC-calculation: 11.3 MB
Total time for SOC:  2.021


           ************************************************************
           *        Program running with 4 parallel MPI-processes     *
           *              working on a common directory               *
           ************************************************************
------------------------------------------------------------------------------
                                ORCA EPR/NMR CALCULATION
------------------------------------------------------------------------------

GBWName                      ... /home/rwth0701/scratch/cs681498/orcajob__30556166-Mnlx/3396.gbw
Electron density             ... /home/rwth0701/scratch/cs681498/orcajob__30556166-Mnlx/3396.scfp
Spin density                 ... /home/rwth0701/scratch/cs681498/orcajob__30556166-Mnlx/3396.scfr
Spin-orbit integrals         ... /home/rwth0701/scratch/cs681498/orcajob__30556166-Mnlx/3396
Treatment of gauge           ... GIAO (approximations 1/2el = 0,0)
Details of the CP(SCF) procedure:
       Solver   = POPLE   
       MaxIter  =    64   
       Tolerance=    1.000e-03
       COSX Grid=     1   
       Op-0     =   0-  4 =>   5- 72
       Op-1     =   0-  3 =>   4- 72
Multiplicity                 ... 2
g-tensor                     ... 1
NMR chemical shifts          ... 0
NMR spin-spin couplings      ... 0
NMR spectrum                 ... 0
Number of nuclei for epr/nmr ... 4
   Nucleus:   1H 
       Hyperfine : Isotope=    1 I=   0.500 P= 533.551
       Quadrupole: Isotope=    2 I=   1.000 Q=   0.003
       Spin-Orbit: Zeff=   1.000
       Nuclear Spin-Spin: Gn=   0.000
       EPRNMR Input: 
       rho(0)=N f(grad)=N a(iso)=Y a(dip)=Y a(orb)=Y sigma(nmr)=N spin-spin(nmr)=all-N,DSO-N,PSO-N,FC-N,SD-N
   Nucleus:   2H 
       Hyperfine : Isotope=    1 I=   0.500 P= 533.551
       Quadrupole: Isotope=    2 I=   1.000 Q=   0.003
       Spin-Orbit: Zeff=   1.000
       Nuclear Spin-Spin: Gn=   0.000
       EPRNMR Input: 
       rho(0)=N f(grad)=N a(iso)=Y a(dip)=Y a(orb)=Y sigma(nmr)=N spin-spin(nmr)=all-N,DSO-N,PSO-N,FC-N,SD-N
   Nucleus:   3H 
       Hyperfine : Isotope=    1 I=   0.500 P= 533.551
       Quadrupole: Isotope=    2 I=   1.000 Q=   0.003
       Spin-Orbit: Zeff=   1.000
       Nuclear Spin-Spin: Gn=   0.000
       EPRNMR Input: 
       rho(0)=N f(grad)=N a(iso)=Y a(dip)=Y a(orb)=Y sigma(nmr)=N spin-spin(nmr)=all-N,DSO-N,PSO-N,FC-N,SD-N
   Nucleus:   0C 
       Hyperfine : Isotope=   13 I=   0.500 P= 134.190
       Quadrupole: Isotope=   13 I=   0.500 Q=   0.000
       Spin-Orbit: Zeff=   3.600
       Nuclear Spin-Spin: Gn=   0.000
       EPRNMR Input: 
       rho(0)=N f(grad)=N a(iso)=Y a(dip)=Y a(orb)=Y sigma(nmr)=N spin-spin(nmr)=all-N,DSO-N,PSO-N,FC-N,SD-N
Forming RHS of the CP-SCF equations         ... 
Calculating right hand sides for GIAO treatment        ... 
  Entering RightHandSide GIAO. ScalHFX=    0.2000 NeedHFX=1
     -> 1-electron GIAO integrals will be done analytically
     -> RIJCOSX used in SCF. Same chosen for GIAO calculation.
     Making grid for GIAO integrations   ...

GRID GIAO
---------

General Integration Accuracy     IntAcc      ... 4.388
Radial Grid Type                 RadialGrid  ... OptM3 with GC (2021)
Angular Grid (max. ang.)         AngularGrid ... 4 (Lebedev-302)
Angular grid pruning method      GridPruning ... 4 (adaptive)
Weight generation scheme         WeightScheme... Becke
Basis function cutoff            BFCut       ... 1.0000e-10
Integration weight cutoff        WCut        ... 1.0000e-14
Angular grids for H and He will be reduced by one unit
Partially contracted basis set               ... off
Rotationally invariant grid construction     ... off

Total number of grid points                  ...    17060
Total number of batches                      ...      268
Average number of points per batch           ...       63
Average number of grid points per atom       ...     4265

  One-electron GIAO integrals (SHARK)     ... done
  Calculating G(B)[P]                     ... (RI-J: SHARK-ok) (COSX-ok) (add-J+K:ok) => dG/dB done
  DFT XC-terms                            ... done
  Extracting occupied and virtual blocks  ... 
  Operator  0  NO=   5 NV=  68 
  Operator  1  NO=   4 NV=  69 
  Transforming and RHS contribution       ... done
  Adding eps_i * S(B)_ai terms            ... done
  Projecting overlap derivatives          ... done
  Building G[dS/dB_ij] (COSX)             ... done
  Transforming to MO basis                ... done
  Summing G[dS/dB_ij] into RHS contribs.  ... done

  GIAO profiling information: 
    Total GIAO time               ...       0.8 sec
       GIAO 1-electron integrals  ...       0.0 sec (  0.4%)
       GIAO G(dS/dB) terms        ...       0.1 sec ( 12.9%)
       GIAO RI-J                  ...       0.1 sec ( 12.8%)
       GIAO COSX                  ...       0.2 sec ( 19.3%)
       GIAO XC-terms              ...       0.3 sec ( 37.8%)

  GIAO right hand side done


------------------------------------------------------------------------------
                           ORCA CP-SCF CALCULATION
------------------------------------------------------------------------------

Input orbitals are from        ... /home/rwth0701/scratch/cs681498/orcajob__30556166-Mnlx/3396.gbw
Input Perturbation             ... /home/rwth0701/scratch/cs681498/orcajob__30556166-Mnlx/3396.pin.tmp
Wavefunction output            ... /home/rwth0701/scratch/cs681498/orcajob__30556166-Mnlx/3396.pout.tmp
Perturbation mode              ... Imaginary perturbation
Solver                         ... POPLE
Max. number of iterations      ... 64
Convergence tolerance          ... 1.000e-03
Integral handling              ... Direct
DFT GridXC                     ... 1
COSX GridX                     ... 1
COSX IntAccX                   ... 3.067
COSX Algorithm                 ... Auto
Number of perturbations        ... 3
Number of operators            ... 2
Orbital ranges used for CP-SCF:
 Operator 0:  Orbitals   0...  4  to   5... 72
 Operator 1:  Orbitals   0...  3  to   4... 72
Variables per perturbation     ... 616
DFT calculation                         ... on
XC functional terms                     ... off
Hybrid DFT                              ... on
   Exchange mixing (SCF)                ...  0.200
   Exchange mixing (CP-SCF)             ...  0.200
   GGA exch. scaling(SCF)               ...  0.720
   GGA exch. scaling (CP-SCF)           ...  0.720
   GGA corr. scaling (SCF)              ...  0.810
   GGA corr. scaling (CP-SCF)           ...  0.810

CP-SCF GRID
-----------

General Integration Accuracy     IntAcc      ... 3.467
Radial Grid Type                 RadialGrid  ... OptM3 with GC (2021)
Angular Grid (max. ang.)         AngularGrid ... 1 (Lebedev-50)
Angular grid pruning method      GridPruning ... 4 (adaptive)
Weight generation scheme         WeightScheme... Becke
Basis function cutoff            BFCut       ... 1.0000e-10
Integration weight cutoff        WCut        ... 1.0000e-14
Angular grids for H and He will be reduced by one unit
Partially contracted basis set               ... off
Rotationally invariant grid construction     ... off

Total number of grid points                  ...     2348
Total number of batches                      ...       38
Average number of points per batch           ...       61
Average number of grid points per atom       ...      587

CP-SCF GRIDX
------------

General Integration Accuracy     IntAcc      ... 3.067
Radial Grid Type                 RadialGrid  ... OptM3 with GC (2021)
Angular Grid (max. ang.)         AngularGrid ... 1 (Lebedev-50)
Angular grid pruning method      GridPruning ... 4 (adaptive)
Weight generation scheme         WeightScheme... Becke
Basis function cutoff            BFCut       ... 1.0000e-10
Integration weight cutoff        WCut        ... 1.0000e-14
Angular grids for H and He will be reduced by one unit
Partially contracted basis set               ... on
Rotationally invariant grid construction     ... off

Total number of grid points                  ...     1078
Total number of batches                      ...       20
Average number of points per batch           ...       53
Average number of grid points per atom       ...      270

Memory available               ... 1014.6 MB
Memory needed per perturbation ...   0.4 MB
Perturbations treated per batch... 3
Number of batches              ... 1
     CP-SCF ITERATION   0:   1.4474e+00 (   0.1 sec   0/  3 done)
     CP-SCF ITERATION   1:   2.6647e-02 (   0.1 sec   0/  3 done)
     CP-SCF ITERATION   2:   2.3782e-03 (   0.1 sec   0/  3 done)
     CP-SCF ITERATION   3:   1.0961e-04 (   0.1 sec   3/  3 done)
                    *** THE CP-SCF HAS CONVERGED ***

Forming final perturbed densities           ... done
Transforming perturbed density to AO basis  ... done

Magnetic field perturbation calculated in  1.265 sec
GIAO: Diamagnetic terms      (analytic)     (SHARK) ... done
GIAO: 1el-Paramagnetic terms (analytic)     (SHARK) ... done

-------------------
ELECTRONIC G-MATRIX
-------------------

 The g-matrix: 
              2.0028918   -0.0000516    0.0000472
             -0.0000436    2.0023551    0.0002412
              0.0000478    0.0002615    2.0027626

 gel          2.0023193    2.0023193    2.0023193
 gRMC        -0.0001287   -0.0001287   -0.0001287
 gDSO(tot)    0.0000346    0.0000702    0.0000706
 gPSO(tot)    0.0000040    0.0006058    0.0006526
             ----------   ----------   ----------
 g(tot)       2.0022292    2.0028666    2.0029138 iso=  2.0026698
 Delta-g     -0.0000901    0.0005473    0.0005945 iso=  0.0003506
 Orientation: 
  X          -0.0954013   -0.5771171   -0.8110699
  Y          -0.8971898    0.4028114   -0.1810896
  Z           0.4312181    0.7104075   -0.5562123

Notes:  (1) The g-matrix conforms to the "BgS" spin Hamiltonian convention. 
        (2) The principal values are square roots of the eigenvalues of g*gT.
        (3) Orientations are eigenvectors of g*gT written as column vectors.
        (4) Individual contributions are projections of the full matrices onto the eigenvectors of g*gT.
        (5) Tensor is right-handed.


-----------------------------------------
ELECTRIC AND MAGNETIC HYPERFINE STRUCTURE
-----------------------------------------

 -----------------------------------------------------------
 Nucleus   1H : A:ISTP=    1 I=  0.5 P=533.5514 MHz/au**3
                Q:ISTP=    2 I=  1.0 Q=  0.0029 barn     
 -----------------------------------------------------------
 Solving for nuclear perturbation:
Forming RHS of the CP-SCF equations         ... 
Calc. nucleus orbit integrals (SHARK)       ... done

------------------------------------------------------------------------------
                           ORCA CP-SCF CALCULATION
------------------------------------------------------------------------------

Input orbitals are from        ... /home/rwth0701/scratch/cs681498/orcajob__30556166-Mnlx/3396.gbw
Input Perturbation             ... /home/rwth0701/scratch/cs681498/orcajob__30556166-Mnlx/3396.pin.tmp
Wavefunction output            ... /home/rwth0701/scratch/cs681498/orcajob__30556166-Mnlx/3396.pout.tmp
Perturbation mode              ... Imaginary perturbation
Solver                         ... POPLE
Max. number of iterations      ... 64
Convergence tolerance          ... 1.000e-03
Integral handling              ... Direct
DFT GridXC                     ... 1
COSX GridX                     ... 1
COSX IntAccX                   ... 3.067
COSX Algorithm                 ... Auto
Number of perturbations        ... 3
Number of operators            ... 2
Orbital ranges used for CP-SCF:
 Operator 0:  Orbitals   0...  4  to   5... 72
 Operator 1:  Orbitals   0...  3  to   4... 72
Variables per perturbation     ... 616
DFT calculation                         ... on
XC functional terms                     ... off
Hybrid DFT                              ... on
   Exchange mixing (SCF)                ...  0.200
   Exchange mixing (CP-SCF)             ...  0.200
   GGA exch. scaling(SCF)               ...  0.720
   GGA exch. scaling (CP-SCF)           ...  0.720
   GGA corr. scaling (SCF)              ...  0.810
   GGA corr. scaling (CP-SCF)           ...  0.810

CP-SCF GRID
-----------

General Integration Accuracy     IntAcc      ... 3.467
Radial Grid Type                 RadialGrid  ... OptM3 with GC (2021)
Angular Grid (max. ang.)         AngularGrid ... 1 (Lebedev-50)
Angular grid pruning method      GridPruning ... 4 (adaptive)
Weight generation scheme         WeightScheme... Becke
Basis function cutoff            BFCut       ... 1.0000e-10
Integration weight cutoff        WCut        ... 1.0000e-14
Angular grids for H and He will be reduced by one unit
Partially contracted basis set               ... off
Rotationally invariant grid construction     ... off

Total number of grid points                  ...     2348
Total number of batches                      ...       38
Average number of points per batch           ...       61
Average number of grid points per atom       ...      587

CP-SCF GRIDX
------------

General Integration Accuracy     IntAcc      ... 3.067
Radial Grid Type                 RadialGrid  ... OptM3 with GC (2021)
Angular Grid (max. ang.)         AngularGrid ... 1 (Lebedev-50)
Angular grid pruning method      GridPruning ... 4 (adaptive)
Weight generation scheme         WeightScheme... Becke
Basis function cutoff            BFCut       ... 1.0000e-10
Integration weight cutoff        WCut        ... 1.0000e-14
Angular grids for H and He will be reduced by one unit
Partially contracted basis set               ... on
Rotationally invariant grid construction     ... off

Total number of grid points                  ...     1078
Total number of batches                      ...       20
Average number of points per batch           ...       53
Average number of grid points per atom       ...      270

Memory available               ... 968.0 MB
Memory needed per perturbation ...   0.4 MB
Perturbations treated per batch... 3
Number of batches              ... 1
     CP-SCF ITERATION   0:   6.0873e-02 (   0.1 sec   0/  3 done)
     CP-SCF ITERATION   1:   2.3193e-03 (   0.1 sec   0/  3 done)
     CP-SCF ITERATION   2:   1.7350e-04 (   0.1 sec   3/  3 done)
                    *** THE CP-SCF HAS CONVERGED ***

Forming final perturbed densities           ... done
Transforming perturbed density to AO basis  ... done

 Raw HFC matrix (all values in MHz): 
 -----------------------------------
               -29.5749              -9.0250              -2.7297
                -9.0250             -71.3631             -13.4690
                -2.7294             -13.4690             -93.7111

 A(FC)         -64.8962             -64.8962             -64.8962
 A(SD)          37.1757              -1.4345             -35.7412
 A(ORB+DIA)      0.0114              -0.0005               0.0284    A(PC) =   0.0131
 A(ORB)          0.0071               0.0005               0.0272    A(PC) =   0.0116
 A(DIA)          0.0043              -0.0010               0.0012    A(PC) =   0.0015
             ----------           ----------           ----------
 A(Tot)        -27.7090             -66.3312            -100.6089    A(iso)=  -64.8830
 Orientation: 
  X           0.9792376            0.1815548            0.0901753
  Y          -0.2027140            0.8751040            0.4394315
  Z           0.0008682           -0.4485876            0.8937384

Notes:  (1) The A matrix conforms to the "SAI" spin Hamiltonian convention.
        (2) Tensor is right-handed.

 -----------------------------------------------------------
 Nucleus   2H : A:ISTP=    1 I=  0.5 P=533.5514 MHz/au**3
                Q:ISTP=    2 I=  1.0 Q=  0.0029 barn     
 -----------------------------------------------------------
 Solving for nuclear perturbation:
Forming RHS of the CP-SCF equations         ... 
Calc. nucleus orbit integrals (SHARK)       ... done

------------------------------------------------------------------------------
                           ORCA CP-SCF CALCULATION
------------------------------------------------------------------------------

Input orbitals are from        ... /home/rwth0701/scratch/cs681498/orcajob__30556166-Mnlx/3396.gbw
Input Perturbation             ... /home/rwth0701/scratch/cs681498/orcajob__30556166-Mnlx/3396.pin.tmp
Wavefunction output            ... /home/rwth0701/scratch/cs681498/orcajob__30556166-Mnlx/3396.pout.tmp
Perturbation mode              ... Imaginary perturbation
Solver                         ... POPLE
Max. number of iterations      ... 64
Convergence tolerance          ... 1.000e-03
Integral handling              ... Direct
DFT GridXC                     ... 1
COSX GridX                     ... 1
COSX IntAccX                   ... 3.067
COSX Algorithm                 ... Auto
Number of perturbations        ... 3
Number of operators            ... 2
Orbital ranges used for CP-SCF:
 Operator 0:  Orbitals   0...  4  to   5... 72
 Operator 1:  Orbitals   0...  3  to   4... 72
Variables per perturbation     ... 616
DFT calculation                         ... on
XC functional terms                     ... off
Hybrid DFT                              ... on
   Exchange mixing (SCF)                ...  0.200
   Exchange mixing (CP-SCF)             ...  0.200
   GGA exch. scaling(SCF)               ...  0.720
   GGA exch. scaling (CP-SCF)           ...  0.720
   GGA corr. scaling (SCF)              ...  0.810
   GGA corr. scaling (CP-SCF)           ...  0.810

CP-SCF GRID
-----------

General Integration Accuracy     IntAcc      ... 3.467
Radial Grid Type                 RadialGrid  ... OptM3 with GC (2021)
Angular Grid (max. ang.)         AngularGrid ... 1 (Lebedev-50)
Angular grid pruning method      GridPruning ... 4 (adaptive)
Weight generation scheme         WeightScheme... Becke
Basis function cutoff            BFCut       ... 1.0000e-10
Integration weight cutoff        WCut        ... 1.0000e-14
Angular grids for H and He will be reduced by one unit
Partially contracted basis set               ... off
Rotationally invariant grid construction     ... off

Total number of grid points                  ...     2348
Total number of batches                      ...       38
Average number of points per batch           ...       61
Average number of grid points per atom       ...      587

CP-SCF GRIDX
------------

General Integration Accuracy     IntAcc      ... 3.067
Radial Grid Type                 RadialGrid  ... OptM3 with GC (2021)
Angular Grid (max. ang.)         AngularGrid ... 1 (Lebedev-50)
Angular grid pruning method      GridPruning ... 4 (adaptive)
Weight generation scheme         WeightScheme... Becke
Basis function cutoff            BFCut       ... 1.0000e-10
Integration weight cutoff        WCut        ... 1.0000e-14
Angular grids for H and He will be reduced by one unit
Partially contracted basis set               ... on
Rotationally invariant grid construction     ... off

Total number of grid points                  ...     1078
Total number of batches                      ...       20
Average number of points per batch           ...       53
Average number of grid points per atom       ...      270

Memory available               ... 967.8 MB
Memory needed per perturbation ...   0.4 MB
Perturbations treated per batch... 3
Number of batches              ... 1
     CP-SCF ITERATION   0:   5.7680e-02 (   0.1 sec   0/  3 done)
     CP-SCF ITERATION   1:   2.2282e-03 (   0.1 sec   0/  3 done)
     CP-SCF ITERATION   2:   1.8875e-04 (   0.1 sec   3/  3 done)
                    *** THE CP-SCF HAS CONVERGED ***

Forming final perturbed densities           ... done
Transforming perturbed density to AO basis  ... done

 Raw HFC matrix (all values in MHz): 
 -----------------------------------
               -94.5041              -4.4393             -17.8558
                -4.4394             -57.1720              12.6445
               -17.8563              12.6447             -34.4221

 A(FC)         -62.0461             -62.0461             -62.0461
 A(SD)          37.9269              -0.5111             -37.4159
 A(ORB+DIA)      0.0106              -0.0005               0.0300    A(PC) =   0.0134
 A(ORB)          0.0061               0.0006               0.0287    A(PC) =   0.0118
 A(DIA)          0.0046              -0.0011               0.0013    A(PC) =   0.0016
             ----------           ----------           ----------
 A(Tot)        -24.1086             -62.5577             -99.4320    A(iso)=  -62.0328
 Orientation: 
  X          -0.2500731            0.0767765           -0.9651781
  Y           0.3749631            0.9267436           -0.0234320
  Z           0.8926736           -0.3677659           -0.2605419

Notes:  (1) The A matrix conforms to the "SAI" spin Hamiltonian convention.
        (2) Tensor is right-handed.

 -----------------------------------------------------------
 Nucleus   3H : A:ISTP=    1 I=  0.5 P=533.5514 MHz/au**3
                Q:ISTP=    2 I=  1.0 Q=  0.0029 barn     
 -----------------------------------------------------------
 Solving for nuclear perturbation:
Forming RHS of the CP-SCF equations         ... 
Calc. nucleus orbit integrals (SHARK)       ... done

------------------------------------------------------------------------------
                           ORCA CP-SCF CALCULATION
------------------------------------------------------------------------------

Input orbitals are from        ... /home/rwth0701/scratch/cs681498/orcajob__30556166-Mnlx/3396.gbw
Input Perturbation             ... /home/rwth0701/scratch/cs681498/orcajob__30556166-Mnlx/3396.pin.tmp
Wavefunction output            ... /home/rwth0701/scratch/cs681498/orcajob__30556166-Mnlx/3396.pout.tmp
Perturbation mode              ... Imaginary perturbation
Solver                         ... POPLE
Max. number of iterations      ... 64
Convergence tolerance          ... 1.000e-03
Integral handling              ... Direct
DFT GridXC                     ... 1
COSX GridX                     ... 1
COSX IntAccX                   ... 3.067
COSX Algorithm                 ... Auto
Number of perturbations        ... 3
Number of operators            ... 2
Orbital ranges used for CP-SCF:
 Operator 0:  Orbitals   0...  4  to   5... 72
 Operator 1:  Orbitals   0...  3  to   4... 72
Variables per perturbation     ... 616
DFT calculation                         ... on
XC functional terms                     ... off
Hybrid DFT                              ... on
   Exchange mixing (SCF)                ...  0.200
   Exchange mixing (CP-SCF)             ...  0.200
   GGA exch. scaling(SCF)               ...  0.720
   GGA exch. scaling (CP-SCF)           ...  0.720
   GGA corr. scaling (SCF)              ...  0.810
   GGA corr. scaling (CP-SCF)           ...  0.810

CP-SCF GRID
-----------

General Integration Accuracy     IntAcc      ... 3.467
Radial Grid Type                 RadialGrid  ... OptM3 with GC (2021)
Angular Grid (max. ang.)         AngularGrid ... 1 (Lebedev-50)
Angular grid pruning method      GridPruning ... 4 (adaptive)
Weight generation scheme         WeightScheme... Becke
Basis function cutoff            BFCut       ... 1.0000e-10
Integration weight cutoff        WCut        ... 1.0000e-14
Angular grids for H and He will be reduced by one unit
Partially contracted basis set               ... off
Rotationally invariant grid construction     ... off

Total number of grid points                  ...     2348
Total number of batches                      ...       38
Average number of points per batch           ...       61
Average number of grid points per atom       ...      587

CP-SCF GRIDX
------------

General Integration Accuracy     IntAcc      ... 3.067
Radial Grid Type                 RadialGrid  ... OptM3 with GC (2021)
Angular Grid (max. ang.)         AngularGrid ... 1 (Lebedev-50)
Angular grid pruning method      GridPruning ... 4 (adaptive)
Weight generation scheme         WeightScheme... Becke
Basis function cutoff            BFCut       ... 1.0000e-10
Integration weight cutoff        WCut        ... 1.0000e-14
Angular grids for H and He will be reduced by one unit
Partially contracted basis set               ... on
Rotationally invariant grid construction     ... off

Total number of grid points                  ...     1078
Total number of batches                      ...       20
Average number of points per batch           ...       53
Average number of grid points per atom       ...      270

Memory available               ... 967.7 MB
Memory needed per perturbation ...   0.4 MB
Perturbations treated per batch... 3
Number of batches              ... 1
     CP-SCF ITERATION   0:   6.0392e-02 (   0.1 sec   0/  3 done)
     CP-SCF ITERATION   1:   2.5928e-03 (   0.1 sec   0/  3 done)
     CP-SCF ITERATION   2:   2.3594e-04 (   0.1 sec   3/  3 done)
                    *** THE CP-SCF HAS CONVERGED ***

Forming final perturbed densities           ... done
Transforming perturbed density to AO basis  ... done

 Raw HFC matrix (all values in MHz): 
 -----------------------------------
               -66.0167              18.2052              32.0171
                18.2053             -68.5158              -0.0393
                32.0169              -0.0394             -64.5447

 A(FC)         -66.3717             -66.3717             -66.3717
 A(SD)          37.4492              -1.1363             -36.3129
 A(ORB+DIA)      0.0103              -0.0005               0.0280    A(PC) =   0.0126
 A(ORB)          0.0059               0.0006               0.0268    A(PC) =   0.0111
 A(DIA)          0.0044              -0.0011               0.0012    A(PC) =   0.0015
             ----------           ----------           ----------
 A(Tot)        -28.9121             -67.5085            -102.6565    A(iso)=  -66.3591
 Orientation: 
  X          -0.7041304            0.0469244            0.7085185
  Y          -0.3230500            0.8673981           -0.3784960
  Z          -0.6323283           -0.4953974           -0.5956025

Notes:  (1) The A matrix conforms to the "SAI" spin Hamiltonian convention.
        (2) Tensor is right-handed.

 -----------------------------------------------------------
 Nucleus   0C : A:ISTP=   13 I=  0.5 P=134.1903 MHz/au**3
                Q:ISTP=   13 I=  0.5 Q=  0.0000 barn     
 -----------------------------------------------------------
 Solving for nuclear perturbation:
Forming RHS of the CP-SCF equations         ... 
Calc. nucleus orbit integrals (SHARK)       ... done

------------------------------------------------------------------------------
                           ORCA CP-SCF CALCULATION
------------------------------------------------------------------------------

Input orbitals are from        ... /home/rwth0701/scratch/cs681498/orcajob__30556166-Mnlx/3396.gbw
Input Perturbation             ... /home/rwth0701/scratch/cs681498/orcajob__30556166-Mnlx/3396.pin.tmp
Wavefunction output            ... /home/rwth0701/scratch/cs681498/orcajob__30556166-Mnlx/3396.pout.tmp
Perturbation mode              ... Imaginary perturbation
Solver                         ... POPLE
Max. number of iterations      ... 64
Convergence tolerance          ... 1.000e-03
Integral handling              ... Direct
DFT GridXC                     ... 1
COSX GridX                     ... 1
COSX IntAccX                   ... 3.067
COSX Algorithm                 ... Auto
Number of perturbations        ... 3
Number of operators            ... 2
Orbital ranges used for CP-SCF:
 Operator 0:  Orbitals   0...  4  to   5... 72
 Operator 1:  Orbitals   0...  3  to   4... 72
Variables per perturbation     ... 616
DFT calculation                         ... on
XC functional terms                     ... off
Hybrid DFT                              ... on
   Exchange mixing (SCF)                ...  0.200
   Exchange mixing (CP-SCF)             ...  0.200
   GGA exch. scaling(SCF)               ...  0.720
   GGA exch. scaling (CP-SCF)           ...  0.720
   GGA corr. scaling (SCF)              ...  0.810
   GGA corr. scaling (CP-SCF)           ...  0.810

CP-SCF GRID
-----------

General Integration Accuracy     IntAcc      ... 3.467
Radial Grid Type                 RadialGrid  ... OptM3 with GC (2021)
Angular Grid (max. ang.)         AngularGrid ... 1 (Lebedev-50)
Angular grid pruning method      GridPruning ... 4 (adaptive)
Weight generation scheme         WeightScheme... Becke
Basis function cutoff            BFCut       ... 1.0000e-10
Integration weight cutoff        WCut        ... 1.0000e-14
Angular grids for H and He will be reduced by one unit
Partially contracted basis set               ... off
Rotationally invariant grid construction     ... off

Total number of grid points                  ...     2348
Total number of batches                      ...       38
Average number of points per batch           ...       61
Average number of grid points per atom       ...      587

CP-SCF GRIDX
------------

General Integration Accuracy     IntAcc      ... 3.067
Radial Grid Type                 RadialGrid  ... OptM3 with GC (2021)
Angular Grid (max. ang.)         AngularGrid ... 1 (Lebedev-50)
Angular grid pruning method      GridPruning ... 4 (adaptive)
Weight generation scheme         WeightScheme... Becke
Basis function cutoff            BFCut       ... 1.0000e-10
Integration weight cutoff        WCut        ... 1.0000e-14
Angular grids for H and He will be reduced by one unit
Partially contracted basis set               ... on
Rotationally invariant grid construction     ... off

Total number of grid points                  ...     1078
Total number of batches                      ...       20
Average number of points per batch           ...       53
Average number of grid points per atom       ...      270

Memory available               ... 967.6 MB
Memory needed per perturbation ...   0.4 MB
Perturbations treated per batch... 3
Number of batches              ... 1
     CP-SCF ITERATION   0:   1.1521e+00 (   0.1 sec   0/  3 done)
     CP-SCF ITERATION   1:   4.3427e-02 (   0.1 sec   0/  3 done)
     CP-SCF ITERATION   2:   3.3600e-03 (   0.1 sec   0/  3 done)
     CP-SCF ITERATION   3:   2.0305e-04 (   0.1 sec   3/  3 done)
                    *** THE CP-SCF HAS CONVERGED ***

Forming final perturbed densities           ... done
Transforming perturbed density to AO basis  ... done

 Raw HFC matrix (all values in MHz): 
 -----------------------------------
                32.2426              21.5051             -11.2088
                21.5051             221.0281             -95.3055
               -11.2088             -95.3054              77.3860

 A(FC)         110.3428             110.3428             110.3428
 A(SD)         -80.7792             -79.8987             160.6779
 A(ORB+DIA)     -0.1745              -0.1831              -0.0140    A(PC) =  -0.1239
 A(ORB)         -0.1749              -0.1834              -0.0139    A(PC) =  -0.1241
 A(DIA)          0.0004               0.0003              -0.0001    A(PC) =   0.0002
             ----------           ----------           ----------
 A(Tot)         29.3890              30.2610             271.0067    A(iso)=  110.2189
 Orientation: 
  X           0.7387034           -0.6664156           -0.1010329
  Y           0.2318564            0.3919784           -0.8902783
  Z           0.6328981            0.6342265            0.4440685

Notes:  (1) The A matrix conforms to the "SAI" spin Hamiltonian convention.
        (2) Tensor is right-handed.


--------------------------------------------------------------------------------
----------------------------------------------------------------------------
                           ORCA EULER ANGLE PROGRAM
----------------------------------------------------------------------------

Only g-tensor available        -->  using g-tensor as reference tensor

Reference tensor               ...  g

g-tensor ordering              ...  |g_min> --> |gx>
                                    |g_mid> --> |gy>
                                    |g_max> --> |gz>

A- and EFG-tensor ordering     ...  the axes |Ax>, |Qx>, |Ay>, etc. are assigned
                                    such that the Euler rotation is minimal. You
                                    can find the respective eigenvalues as Ax,
                                    EFGx, Ay, etc. in the tables below.
                                    The relation of |Ax>, |Ay>,  etc. to Amin, Amid, etc.
                                    (as printed in the ORCA EPR/NMR CALCULATION Output)
                                    is obtained in the detailed printout.

Euler rotation around          ...  z - y - z
   First rotation              -->  by alpha around z
   Second rotation             -->  by beta around y'
   Third rotation              -->  by gamma around z''
   Positive / Negative angle   -->  clockwise / counterclockwise rotation

Plot EFG-tensors                    (-)
Plot HFC-tensors                    (-)
Detailed Printout                   (-)

-------------------------------------------------------------------------
          Euler rotation of hyperfine tensor to g-tensor
-------------------------------------------------------------------------

-------------------------------------------------------------------
 Atom  |   Alpha    Beta    Gamma   |   Ax       Ay       Az 
       |          [degrees]         |           [MHz]         
-------------------------------------------------------------------
  1H      -85.1     40.7     82.2     -66.33  -100.61   -27.71
  2H      -86.0     21.3     90.1     -62.56   -24.11   -99.43
  3H      114.7     11.1   -116.0     -67.51  -102.66   -28.91
  0C       91.9      6.7    -92.7     271.01    30.26    29.39
-------------------------------------------------------------------


Maximum memory used throughout the entire EPRNMR-calculation: 67.6 MB

Timings for individual modules:

Sum of individual times         ...       17.883 sec (=   0.298 min)
GTO integral calculation        ...        3.224 sec (=   0.054 min)  18.0 %
Spin-Orbit-Coupling Matrices    ...        1.982 sec (=   0.033 min)  11.1 %
SCF iterations                  ...        6.738 sec (=   0.112 min)  37.7 %
EPR/NMR calculation             ...        5.939 sec (=   0.099 min)  33.2 %
                             ****ORCA TERMINATED NORMALLY****
TOTAL RUN TIME: 0 days 0 hours 0 minutes 20 seconds 725 msec
